16
Atoms. Timestep: 0
2 0.13662 0.169085 10.9871
2 3.76421 0.266823 3.1272
2 3.83485 0.571516 8.42973
2 0.760129 3.52713 4.71335
2 0.488253 2.48528 8.04057
2 3.7133 1.58435 0.055167
2 2.2702 2.48614 2.29858
2 0.099726 0.090451 1.27611
2 3.10153 2.60731 5.56839
2 0.637596 3.99339 6.73695
3 1.30313 1.47111 5.08971
3 2.56057 3.19357 9.06404
3 0.264298 2.07952 10.4977
1 2.00616 1.35693 11.042
1 1.56641 2.41927 0.132566
1 2.01633 0.911348 8.94271
16
Atoms. Timestep: 100
2 3.09265 3.87757 12.102
2 3.29878 1.21182 3.38263
2 3.91734 0.383861 9.05919
2 1.40501 3.57988 3.3003
2 0.512584 2.45372 7.93909
2 3.21969 1.55638 23.5749
2 2.06552 2.13008 1.67207
2 0.50548 0.158034 1.11605
2 3.30533 3.17618 5.43245
2 1.43009 0.232802 6.72502
3 1.33461 1.70351 4.83379
3 2.4136 2.47315 9.58174
3 0.579265 1.99242 11.2372
1 1.1998 3.80253 12.2386
1 1.3527 1.44778 23.9251
1 2.43549 1.8997 7.55387
16
Atoms. Timestep: 200
2 2.41478 3.91512 11.2991
2 3.59 1.92729 3.20788
2 0.467092 0.144057 9.47489
2 1.76855 3.70011 3.32408
2 3.94287 2.11423 7.2622
2 3.49958 1.66953 23.9502
2 1.5937 1.87085 1.63141
2 3.62861 3.74993 1.81653
2 3.70278 3.91793 4.9237
2 2.2089 0.101881 7.29662
3 1.62216 1.75297 4.98883
3 2.39682 2.1252 9.52317
3 0.570037 1.82582 11.4452
1 0.288952 3.82403 12.0039
1 1.46555 1.63908 23.7594
1 1.90893 2.19487 7.17487
16
Atoms. Timestep: 300
2 2.32514 3.87369 10.7984
2 3.7434 1.8587 3.57001
2 0.15275 3.87602 9.01603
2 1.68284 3.85827 3.61359
2 0.0965446 1.91144 7.20949
2 3.75131 1.97691 0.313025
2 1.8256 1.92366 1.98116
2 3.63148 3.89414 2.11484
2 3.60329 3.79856 5.23346
2 2.20262 3.85838 7.39745
3 1.687 1.84486 5.05197
3 2.27084 2.04005 9.19582
3 0.310164 2.01464 10.7647
1 0.388141 0.108169 11.4634
1 1.71036 1.98342 0.107328
1 2.08988 1.88399 7.0148
16
Atoms. Timestep: 400
2 1.93364 3.93328 10.8444
2 3.92948 1.96339 3.64323
2 3.93406 3.75144 8.85251
2 2.15627 3.99342 3.74399
2 0.0413382 1.88751 6.98601
2 3.75662 1.93218 0.599013
2 1.88207 1.82569 2.12476
2 0.136551 3.99267 2.14501
2 3.93746 3.94617 5.24725
2 1.9101 3.85878 6.81627
3 1.81383 1.93952 5.00219
3 1.97506 1.95624 9.231
3 3.99682 1.85877 10.913
1 3.96949 3.84491 11.5451
1 1.77084 1.96618 0.249548
1 2.02541 1.74525 7.21759
16
Atoms. Timestep: 500
2 1.40676 3.82201 11.0541
2 0.348394 1.97184 3.43496
2 3.74071 3.96257 9.28318
2 2.15309 3.95184 3.48248
2 0.0292717 2.13176 7.04375
2 0.319073 1.83348 0.156914
2 2.14595 1.85907 1.79978
2 3.95472 3.90838 1.89953
2 0.240666 3.9858 5.24893
2 1.9865 0.0264627 7.43444
3 2.30356 1.98967 5.05597
3 1.48972 1.65898 9.26683
3 3.28757 1.74776 11.0444
1 3.29227 3.65499 11.6971
1 2.46694 1.79957 23.939
1 2.07676 2.10083 7.12608
16
Atoms. Timestep: 600
2 1.37303 3.8528 11.2343
2 0.330752 1.96647 3.29071
2 3.66089 3.98602 9.07885
2 2.35876 0.0345124 3.35471
2 3.65958 1.68914 7.29056
2 0.500336 1.98342 0.141082
2 2.27767 2.07016 1.86258
2 0.374659 3.96601 1.98569
2 0.338275 3.82303 5.03946
2 1.47955 3.76699 7.18113
3 2.34133 1.88385 5.12344
3 1.35755 1.84668 9.40336
3 3.39721 1.92574 11.1744
1 3.31961 3.9221 11.8749
1 2.63471 1.96946 0.00346564
1 1.70662 1.85177 7.02389
16
Atoms. Timestep: 700
2 1.65137 3.89875 10.6688
2 0.305559 2.02454 3.42666
2 3.63368 3.69228 9.00474
2 2.25492 0.0243925 3.48663
2 3.72809 1.67786 7.42702
2 0.101454 2.01452 0.245332
2 2.31265 1.83987 1.90465
2 0.310925 3.94488 1.95949
2 0.119003 0.0770954 5.22511
2 1.48497 3.84112 7.48619
3 2.27043 2.09271 5.0881
3 1.56509 1.95504 9.28872
3 3.70094 1.75626 11.0554
1 3.69135 3.62328 11.5369
1 2.13865 2.06894 0.0335366
1 1.82217 1.85745 6.93955
16
Atoms. Timestep: 800
2 1.82179 3.57048 11.1006
2 3.92351 2.01936 3.62565
2 3.95846 3.89906 8.98112
2 1.84443 3.98938 3.64778
2 3.94299 2.00188 7.13344
2 0.147257 2.03576 0.434454
2 2.14888 2.13367 1.99107
2 3.81616 0.0330678 2.04798
2 3.84271 0.000641147 5.15654
2 2.14569 3.99625 6.92888
3 1.89673 1.95154 4.98127
3 1.91373 1.53611 9.31954
3 3.96229 1.6689 10.8626
1 3.86057 3.58528 11.4826
1 2.21099 1.9932 0.14232
1 1.84926 2.05816 7.13806
16
Atoms. Timestep: 900
2 2.23248 3.83552 10.6525
2 3.81358 1.98448 3.64726
2 0.103563 3.97995 9.09253
2 2.00668 3.98486 3.67598
2 0.0242069 1.81195 6.99518
2 3.55269 2.00226 0.345527
2 1.80573 2.00778 1.95897
2 3.97697 0.0209824 2.10412
2 3.99848 3.97201 5.20564
2 1.87362 3.93997 7.29432
3 1.84943 1.97133 5.08823
3 2.0732 1.71729 9.15605
3 0.106837 1.65667 10.9565
1 0.0196748 3.48356 11.6223
1 1.57949 1.96857 0.120285
1 2.08249 1.96842 7.16688
16
Atoms. Timestep: 1000
2 2.12054 0.0772569 11.2068
2 3.8005 1.78613 3.38632
2 0.0909799 3.85596 8.99134
2 1.79603 3.81851 3.46813
2 0.12276 1.86665 7.40794
2 3.87838 1.84521 0.306855
2 1.77695 1.68953 1.90159
2 3.80675 3.86296 2.02202
2 3.93913 3.87989 5.12377
2 2.13757 3.75519 7.05225
3 1.56971 1.97055 5.0684
3 2.18776 2.08467 9.19476
3 0.0623419 2.22284 11.0012
1 0.219446 0.295051 11.7795
1 1.99954 1.92086 0.0917207
1 1.99526 1.77178 7.19585
16
Atoms. Timestep: 1100
2 1.93284 0.271344 10.8838
2 3.99025 1.66669 3.40017
2 0.00478581 0.203565 9.15506
2 1.73341 3.66058 3.41475
2 0.0130889 1.90511 7.07418
2 3.87355 1.65603 0.223936
2 1.83031 1.74487 1.88589
2 3.84803 3.78079 1.93444
2 3.89515 3.61588 5.18656
2 2.06623 0.0525539 7.43368
3 1.95506 1.58576 5.08529
3 2.20705 2.35272 9.30392
3 3.98183 2.23193 11.2344
1 3.97224 0.314713 11.715
1 1.97522 1.65908 0.0436074
1 2.06215 1.97674 6.93078
16
Atoms. Timestep: 1200
2 2.08958 0.0874788 10.8568
2 3.98685 1.76498 3.6184
2 3.81258 0.212708 9.0044
2 2.05382 3.66464 3.7182
2 3.73978 2.02627 7.10056
2 3.88867 1.55112 0.381518
2 1.94811 1.59291 2.04035
2 0.307787 3.72826 2.00579
2 3.98461 3.87486 5.31205
2 1.78758 0.206778 7.37246
3 1.9764 1.65358 5.00253
3 1.87783 2.22779 9.08333
3 3.9481 2.16097 10.7437
1 0.048465 0.099035 11.5519
1 1.93001 1.477 0.192392
1 1.7918 2.29167 6.94108
16
Atoms. Timestep: 1300
2 1.65896 3.99398 10.8129
2 0.12113 1.86207 3.56834
2 3.86999 3.86109 9.11375
2 1.87671 3.97826 3.72858
2 3.81245 1.94077 7.20132
2 0.278928 1.93005 0.348273
2 2.22636 1.76307 2.0315
2 3.95654 3.83432 2.03518
2 3.94832 3.74042 5.12308
2 1.96042 3.79613 6.89325
3 2.21993 2.07207 5.05724
3 1.7046 1.94077 9.216
3 3.83861 2.04495 11.0397
1 3.4634 0.126844 11.4424
1 2.26697 1.99676 0.19617
1 1.76131 1.72016 7.27339
16
Atoms. Timestep: 1400
2 1.82419 3.91711 11.1119
2 3.99762 2.12861 3.4741
2 3.77925 3.74164 9.08526
2 2.15372 3.90564 3.6022
2 3.94783 1.80475 7.07804
2 0.0402106 2.13711 0.161462
2 2.11243 1.9665 1.89792
2 0.215673 0.127343 1.9613
2 0.161974 3.89531 5.05483
2 1.87398 3.85771 7.26616
3 2.13348 1.80616 5.07752
3 1.54394 1.78515 9.34889
3 3.63801 1.7303 10.999
1 3.77314 3.81051 11.7686
1 2.01374 2.11621 0.0499992
1 1.95728 1.8212 7.28081
16
Atoms. Timestep: 1500
2 1.71253 3.5095 10.8681
2 3.97397 1.90845 3.46014
2 3.75801 3.90872 8.95068
2 1.97817 0.120648 3.5866
2 3.96347 2.00421 7.28797
2 0.0255808 1.91684 0.184236
2 1.98986 2.13432 2.06236
2 0.0785286 3.89835 2.02654
2 0.0359582 0.00915052 5.1771
2 1.94732 3.86713 7.23771
3 2.02205 2.07378 5.12399
3 1.98631 1.81291 9.16771
3 3.90634 1.72007 11.0608
1 3.84075 3.70937 11.4797
1 2.00814 1.88241 0.196797
1 2.0022 1.80265 7.13215
16
Atoms. Timestep: 1600
2 2.14755 3.91139 10.8993
2 3.97614 1.9631 3.59186
2 0.00235689 3.72314 9.0146
2 1.7636 0.120955 3.65519
2 3.81216 1.74629 7.03454
2 0.0379588 1.73998 0.334551
2 1.96708 1.99473 2.07037
2 3.81669 3.84762 2.02042
2 3.85318 0.0948993 5.16079
2 1.79446 3.94346 7.11684
3 1.91132 2.03967 5.04775
3 2.22118 1.86091 9.26428
3 0.0355886 1.81756 10.9515
1 0.167292 3.85697 11.6324
1 2.00426 1.81805 0.213962
1 1.80468 2.02592 7.09891
16
Atoms. Timestep: 1700
2 2.17501 0.0315077 10.9091
2 3.8427 1.92536 3.56296
2 0.0751449 0.0942438 9.03876
2 1.93709 3.63648 3.63527
2 3.91126 2.05218 7.17679
2 3.72544 2.0899 0.253726
2 1.78557 1.8101 1.96726
2 3.91273 3.91089 2.02136
2 3.96869 3.83204 5.23797
2 2.07661 3.94224 7.22054
3 1.7687 1.56029 4.94712
3 2.14048 1.93517 9.29545
3 0.0926395 1.92614 10.9664
1 0.129397 3.91049 11.6557
1 1.6467 2.10038 0.122914
1 1.93012 1.95117 6.89241
16
Atoms. Timestep: 1800
2 1.835 0.108573 10.9188
2 3.851 1.79785 3.40743
2 0.133516 0.128937 9.10785
2 1.80374 3.7729 3.52349
2 0.399393 2.0098 7.1527
2 3.87906 1.80108 0.342332
2 1.77259 1.59061 1.92558
2 3.59728 3.68716 2.03599
2 3.80941 3.68336 5.20168
2 2.33897 0.0218006 7.27808
3 1.86056 1.85731 5.0135
3 1.98742 1.97228 9.30894
3 0.0911907 2.28444 11.0631
1 3.73133 0.193598 11.5344
1 1.81361 1.74357 0.0697813
1 2.37866 2.06631 6.86076
16
Atoms. Timestep: 1900
2 2.24223 0.27361 10.8866
2 3.84944 1.8048 3.44588
2 3.93571 3.94863 9.11968
2 2.08342 3.83061 3.48374
2 3.81403 1.99183 7.34477
2 3.94487 1.5206 0.217426
2 1.93547 1.83254 1.77103
2 0.0354322 3.70415 2.04106
2 3.81942 3.76665 5.25
2 1.87027 0.0313398 7.31342
3 1.81798 1.76859 5.04356
3 1.95618 2.26735 9.3559
3 0.000848318 2.07927 10.9372
1 0.283442 0.1903 11.7312
1 1.91458 1.49547 23.9693
1 1.9582 1.90502 7.04497
16
Atoms. Timestep: 2000
2 1.814 3.94425 10.8893
2 0.0937075 1.7768 3.53553
2 3.89396 3.95709 8.98523
2 2.01315 3.82735 3.59658
2 3.92719 2.1822 7.09445
2 3.96952 1.85193 0.494416
2 2.01421 1.87724 1.95763
2 3.84635 3.85056 2.11816
2 3.95015 3.82441 5.1613
2 1.85839 3.80701 7.07986
3 2.14086 1.73721 5.10293
3 1.95122 2.03821 9.33759
3 3.96028 2.07572 10.8564
1 3.79329 0.0942989 11.4323
1 1.96198 1.94061 0.158211
1 1.86203 1.86419 7.16316
16
Atoms. Timestep: 2100
2 1.67456 3.77758 10.7341
2 0.00145227 1.92638 3.5737
2 3.84279 3.90427 8.74738
2 2.09881 3.97816 3.65033
2 0.108167 1.80467 6.98697
2 0.211811 2.04259 0.559582
2 2.0357 1.92442 1.98202
2 0.0292029 0.037112 2.17739
2 0.0362659 3.96614 5.25763
2 1.94154 3.88538 7.21832
3 1.89972 2.04225 5.12744
3 1.70579 1.75168 9.28521
3 3.63664 1.76196 10.8671
1 3.90334 3.86043 11.6172
1 2.32936 2.03374 0.207121
1 2.31365 1.82974 7.09874
16
Atoms. Timestep: 2200
2 1.73507 3.61431 11.1184
2 0.271941 1.96809 3.42505
2 3.81689 3.76908 9.15798
2 2.24794 3.96496 3.43578
2 3.79628 2.08448 7.30849
2 3.82758 2.00584 0.235497
2 2.07161 2.03034 1.78296
2 0.243902 3.98763 1.94286
2 0.0423533 0.123452 5.23832
2 1.75512 3.94242 7.22247
3 2.26943 2.14275 5.00567
3 1.75802 1.62562 9.32878
3 3.74467 1.6038 11.036
1 3.64427 3.53145 11.6741
1 1.79347 1.95702 23.9898
1 1.62459 2.01756 6.96667
16
Atoms. Timestep: 2300
2 1.8361 3.78333 10.9572
2 3.9921 2.01735 3.4172
2 0.00716291 3.8389 9.24372
2 1.89937 3.94075 3.44447
2 3.92546 1.50487 7.32872
2 0.44293 1.91505 0.184326
2 2.15941 2.18988 1.82154
2 3.85017 0.0528504 1.99267
2 3.85889 0.0659686 5.05332
2 1.76581 3.78169 7.46042
3 1.77731 1.98207 4.94224
3 1.82968 1.90108 9.28144
3 3.90232 1.86381 11.0646
1 3.84046 3.77291 11.7361
1 2.5089 1.96058 0.0583799
1 2.0701 1.82953 7.02941
16
Atoms. Timestep: 2400
2 2.14121 3.98439 10.9004
2 3.92699 1.78973 3.69693
2 3.89191 3.73223 8.79822
2 2.09802 3.95174 3.66327
2 3.85639 1.99453 7.00782
2 3.43603 1.96446 0.365637
2 1.75523 1.96238 2.07681
2 3.90137 3.84505 2.21804
2 0.169897 3.8719 5.32093
2 2.18459 3.73074 6.96852
3 2.04648 2.06682 4.98888
3 2.02631 1.95131 9.17002
3 0.064841 1.97638 10.9618
1 0.117781 0.0849746 11.4766
1 1.45069 1.95269 0.281194
1 1.77581 1.56026 7.30237
16
Atoms. Timestep: 2500
2 2.17824 0.105305 10.8862
2 3.78869 1.86407 3.55098
2 0.19909 0.145623 8.99404
2 1.7272 3.74093 3.56665
2 3.98948 1.7134 6.97551
2 3.895 1.893 0.537606
2 1.7683 1.64375 2.0635
2 3.78863 3.89915 2.14178
2 3.77198 3.86256 5.25962
2 1.91013 0.0828327 7.25608
3 1.66614 1.74941 4.98162
3 2.30508 1.98167 9.12378
3 0.317704 2.05457 10.8539
1 0.254424 3.98819 11.5873
1 1.98667 1.81358 0.292108
1 1.85482 2.15928 6.98472
16
Atoms. Timestep: 2600
2 2.18062 0.0461692 10.8177
2 3.9687 1.77417 3.48611
2 0.106168 0.00881019 9.02435
2 1.75597 3.81288 3.52251
2 3.94057 2.12426 7.37097
2 3.81629 1.78029 0.180433
2 1.78509 1.77013 1.82405
2 3.88326 3.80308 1.94909
2 3.66064 3.68969 5.18201
2 2.13212 0.010647 7.40217
3 1.90724 1.73972 5.0143
3 2.18755 2.02149 9.34956
3 3.99835 2.14656 11.0885
1 0.257287 0.126968 11.6097
1 1.82973 1.88961 0.0278016
1 1.96417 1.96373 7.08906
16
Atoms. Timestep: 2700
2 1.74397 0.0785972 11.1648
2 3.88449 1.91111 3.51205
2 3.72878 0.00295369 9.05353
2 2.23078 3.87526 3.47727
2 0.276917 2.00072 7.39095
2 3.76672 1.65741 0.338692
2 1.83461 1.84901 1.9336
2 0.153116 3.75646 1.87417
2 0.233256 3.89341 5.02033
2 1.85821 3.86494 7.27893
3 1.88078 1.88776 4.97285
3 1.88026 2.14689 9.33785
3 3.90657 1.90415 10.8577
1 3.82644 0.0153726 11.578
1 1.70078 1.65508 0.136416
1 2.35076 1.90605 7.04058
16
Atoms. Timestep: 2800
2 1.88735 3.80906 10.6133
2 0.145671 1.92819 3.69258
2 3.89872 3.87536 8.98881
2 1.92945 3.88535 3.65962
2 3.59099 1.97064 7.03402
2 0.377792 2.02856 0.384811
2 2.24547 1.88789 2.08828
2 3.8989 3.84851 2.14464
2 3.90381 3.92997 5.23752
2 2.01098 3.92471 7.11502
3 2.18312 1.8058 5.06758
3 1.70318 1.83716 9.15275
3 3.71573 2.02295 10.9558
1 3.58852 0.0437622 11.5911
1 2.30173 1.8845 0.273147
1 1.54761 1.97558 7.19977
16
Atoms. Timestep: 2900
2 1.80153 0.0115855 11.0273
2 0.0524858 1.97353 3.62783
2 3.97427 3.82578 9.01051
2 2.01875 3.99829 3.58582
2 0.0853527 1.79677 7.24143
2 3.95104 2.06633 0.252473
2 1.96993 2.02676 2.05145
2 0.0355382 3.96545 2.0989
2 0.0250512 3.89375 5.27576
2 1.67804 3.78164 7.01926
3 2.10272 1.86865 5.05862
3 1.87694 1.83567 9.18778
3 3.83036 1.82004 10.736
1 3.71771 3.63636 11.5356
1 1.90808 2.13228 0.221006
1 2.14233 1.71402 7.17712
16
Atoms. Timestep: 3000
2 1.9631 3.80236 10.8616
2 3.7141 2.04096 3.40096
2 0.0297893 3.85654 9.25847
2 1.89212 0.0766318 3.38237
2 0.118353 1.76917 7.15766
2 3.67728 1.80644 0.185107
2 1.71015 1.98254 1.96766
2 3.89647 3.96625 1.81643
2 3.97805 3.97271 5.07443
2 2.43432 3.85574 7.42485
3 1.8539 1.98793 4.9526
3 1.96287 1.73504 9.28359
3 0.21698 1.92213 11.3584
1 3.81966 0.0295839 11.7175
1 1.62209 1.84347 0.142553
1 2.12017 1.95248 7.19832
16
Atoms. Timestep: 3100
2 2.57526 3.80472 11.0358
2 3.70481 1.88981 3.62863
2 0.219698 3.97512 8.89835
2 1.58405 0.0250451 3.5758
2 0.0546519 2.03154 7.41039
2 3.8393 1.98192 0.172695
2 1.70684 1.96427 1.99352
2 3.61002 3.86376 2.00412
2 3.65375 3.75402 5.12258
2 2.03965 3.86728 7.22549
3 1.69864 1.8759 5.07726
3 2.28872 1.99289 9.27976
3 0.204109 1.8207 10.801
1 0.659321 3.81453 11.4857
1 1.86171 1.82562 0.165793
1 2.08711 1.89223 7.05433
16
Atoms. Timestep: 3200
2 2.15576 0.128445 10.7863
2 3.83508 1.99658 3.70168
2 0.0997652 3.80583 8.8223
2 1.91718 3.703 3.59724
2 3.81646 1.86737 6.74772
2 3.51721 1.82509 0.451351
2 1.69668 1.73366 2.11964
2 3.91883 3.85134 2.11353
2 3.84692 3.88258 5.04826
2 1.90454 0.0662598 7.14972
3 1.79292 1.78698 5.09975
3 2.59852 1.98853 9.35094
3 0.388311 2.09316 11.1607
1 0.0126805 0.0411531 11.5072
1 1.58393 1.89712 0.290785
1 1.7181 2.04281 7.1589
16
Atoms. Timestep: 3300
2 1.98625 0.036525 10.9168
2 3.99381 1.73349 3.58845
2 3.91951 0.160557 9.01314
2 1.93311 3.80376 3.53652
2 3.97918 1.96077 7.39623
2 0.0582487 1.66326 0.292169
2 1.96299 1.83426 2.02566
2 3.77519 3.65587 1.99104
2 0.0788217 3.82674 5.20672
2 2.10248 3.87078 7.24139
3 1.87848 1.96527 5.0531
3 1.81014 2.11248 9.18281
3 3.76197 2.16062 10.799
1 0.127146 0.105807 11.5583
1 2.1533 1.72435 0.181835
1 2.1717 1.88789 6.90986
16
Atoms. Timestep: 3400
2 1.73956 0.0133956 11.1337
2 0.169488 1.73714 3.50774
2 3.81259 0.00788168 9.03905
2 2.15435 3.75933 3.48836
2 3.85812 1.94105 6.95456
2 0.0936092 1.85541 0.182824
2 2.16812 1.9556 1.88475
2 0.0419882 3.83127 1.96856
2 0.107144 3.94978 5.18494
2 1.82507 3.88495 7.23972
3 2.04446 1.75772 5.08238
3 1.7083 2.03094 9.28743
3 3.75163 2.06996 11.2009
1 3.56846 0.165256 11.7447
1 2.15716 1.70796 0.0540016
1 1.78982 1.84848 7.1397
16
Atoms. Timestep: 3500
2 1.54788 0.0639934 10.901
2 0.0418232 1.80958 3.53137
2 3.90534 3.91029 9.07326
2 2.14378 3.77882 3.58666
2 0.0403297 1.66011 7.23587
2 0.084486 2.04928 0.495198
2 2.15434 1.88528 2.00213
2 0.110557 3.9735 2.0999
2 3.93521 3.95903 5.13363
2 1.82117 0.035468 7.14664
3 1.96843 1.81086 5.02371
3 1.80276 1.92755 9.04702
3 3.87265 1.85439 10.9148
1 3.59337 3.69903 11.6657
1 2.08588 2.16793 0.188566
1 2.00168 2.18814 7.00729
16
Atoms. Timestep: 3600
2 2.04842 3.66998 10.7784
2 3.938 2.01737 3.67119
2 3.97485 3.9623 9.05146
2 1.86865 3.98685 3.69664
2 3.98767 1.86189 6.96669
2 3.99324 1.85896 0.30871
2 1.92741 1.88204 1.98038
2 3.75665 0.126335 2.11684
2 3.9285 3.94625 5.29991
2 2.223 3.86679 7.14786
3 1.97997 2.06879 5.07992
3 1.81194 1.70152 9.21489
3 3.87099 1.87283 10.907
1 0.090346 3.84744 11.3843
1 1.96086 1.97922 0.137174
1 2.10211 1.8106 7.20131
16
Atoms. Timestep: 3700
2 2.11718 3.8387 10.8946
2 3.89692 1.89485 3.51543
2 0.00478637 3.75888 9.0415
2 1.97029 0.0918366 3.54706
2 3.80865 2.02597 6.92484
2 3.7722 1.95735 0.32564
2 1.76116 2.01694 1.97481
2 3.92828 0.041652 1.88291
2 0.0139364 3.84567 5.18322
2 1.79648 3.85849 7.44073
3 1.89336 2.13836 4.9867
3 2.35427 1.8455 9.27088
3 0.0912807 1.61605 11.217
1 0.235302 3.51271 11.6137
1 1.73051 1.8001 0.129307
1 1.71466 1.89911 7.00618
16
Atoms. Timestep: 3800
2 2.00686 3.76313 10.9701
2 3.87797 2.134 3.45005
2 0.123829 3.68885 9.04197
2 1.71036 3.90879 3.56501
2 0.147508 1.66925 7.54948
2 0.0239519 2.10707 0.340473
2 1.89791 2.01602 1.99227
2 3.77507 0.175939 1.98697
2 3.73088 3.97712 5.09477
2 2.21799 0.010686 7.15096
3 1.67041 1.88511 5.03667
3 2.15701 1.64775 9.218
3 0.0340282 1.77414 10.8218
1 3.98825 3.79044 11.634
1 1.94905 2.17563 0.128167
1 1.93698 1.9641 6.98041
16
Atoms. Timestep: 3900
2 2.04788 3.63691 10.7826
2 3.89586 2.07083 3.57937
2 0.0549989 0.0176183 8.98661
2 1.98569 0.0322119 3.55325
2 0.177612 1.88384 6.98918
2 3.6379 2.03557 0.124512
2 1.79319 2.03359 1.95921
2 3.98804 3.91617 2.06671
2 0.0148809 3.96885 5.25437
2 2.11001 3.73352 7.37498
3 1.91757 2.10092 5.16758
3 1.86025 1.73265 9.30616
3 3.90874 1.69967 11.0829
1 0.0181951 3.70464 11.4267
1 1.54063 2.06411 0.0718796
1 2.26078 1.72043 7.15373
16
Atoms. Timestep: 4000
2 1.89239 3.94537 10.8703
2 3.98391 1.96763 3.58536
2 3.85281 3.67604 9.06767
2 1.97086 0.0300979 3.59586
2 3.66849 1.97424 7.09613
2 0.159469 1.92929 0.510081
2 2.04371 1.97883 2.06797
2 0.00296264 3.76561 2.13662
2 3.94096 3.98027 5.10186
2 1.74597 3.9431 7.13738
3 2.02395 1.9618 5.00206
3 1.97813 1.90499 9.17772
3 0.1762 1.79387 10.844
1 3.84246 3.80056 11.6203
1 2.08214 1.81089 0.225382
1 1.65115 1.90772 7.00428
16
Atoms. Timestep: 4100
2 1.94184 0.0621223 10.8417
2 0.00881482 1.86987 3.61626
2 3.88094 0.15042 9.09665
2 1.85981 3.87134 3.61182
2 3.9242 1.75872 6.82041
2 0.37278 1.81546 0.317622
2 2.09503 1.8299 2.01497
2 3.87614 3.77332 2.05089
2 3.88642 3.82663 5.19352
2 1.9035 0.0307446 7.15909
3 2.07792 1.60993 5.00305
3 1.75319 2.05054 9.32113
3 3.76337 2.05621 11.1089
1 3.90483 0.0815713 11.656
1 2.29354 1.90096 0.153206
1 1.82496 2.10978 7.14061
16
Atoms. Timestep: 4200
2 1.73466 0.169143 11.0003
2 3.89915 1.76435 3.50323
2 0.0102212 0.122901 8.99675
2 2.18685 3.77025 3.58097
2 0.180741 2.27191 7.319
2 3.67794 1.75468 0.0940518
2 1.8747 1.48818 1.90217
2 0.122523 3.70877 1.92268
2 0.152238 3.76798 5.18052
2 2.03183 3.90909 7.30481
3 1.99942 1.66353 5.03762
3 1.89987 2.11191 9.32258
3 3.70795 2.2055 11.0232
1 3.60755 0.309018 11.8356
1 1.61466 1.86808 0.0637071
1 2.26691 1.87304 6.92962
16
Atoms. Timestep: 4300
2 2.12094 0.179638 10.9737
2 3.91656 1.76301 3.47335
2 3.96203 3.88921 9.13217
2 1.71098 3.9058 3.50745
2 3.85906 2.01384 7.34227
2 0.117917 1.65594 0.342152
2 2.026 1.75788 2.08128
2 3.7764 3.78026 2.03472
2 3.68561 3.6324 5.0897
2 1.86334 3.95711 7.00144
3 1.87452 1.88105 5.04731
3 2.20484 2.24032 9.2467
3 0.15461 2.16033 10.9138
1 0.246922 0.18427 11.5907
1 2.08896 1.53245 0.219953
1 1.89679 1.86766 7.04578
16
Atoms. Timestep: 4400
2 2.27376 3.89457 10.7458
2 3.92775 1.87046 3.67542
2 3.92607 3.86912 8.90499
2 1.76327 3.854 3.64567
2 3.78153 1.95792 6.83961
2 3.83927 1.8134 0.336415
2 1.86441 1.92641 2.10745
2 3.82577 3.96253 2.14488
2 3.84426 3.76379 5.29849
2 2.00427 3.8466 7.18315
3 1.81583 1.8997 5.12404
3 2.26413 2.05771 9.23016
3 0.216322 2.0552 10.925
1 0.461135 0.182746 11.5326
1 1.82492 1.81915 0.229281
1 1.6462 1.79359 7.18565
16
Atoms. Timestep: 4500
2 2.01751 3.79458 10.8947
2 3.75864 1.96026 3.59794
2 0.141726 3.90351 9.00337
2 1.98931 3.82935 3.59736
2 0.143214 1.73812 7.29151
2 3.62871 2.08092 0.373884
2 1.74567 1.94945 2.03732
2 3.94168 0.147705 2.08684
2 0.0748874 3.97411 5.22661
2 2.00759 3.98876 7.03134
3 1.72353 1.96711 4.97734
3 2.04407 1.73191 9.20128
3 0.161231 1.72018 10.9407
1 3.90922 3.63254 11.4787
1 1.62751 2.14849 0.180891
1 2.31398 2.02464 6.91263
16
Atoms. Timestep: 4600
2 2.04769 3.5954 11.0312
2 3.96111 1.90381 3.47442
2 0.0208342 3.85799 9.0957
2 1.77567 0.031928 3.50884
2 3.97825 1.93394 7.15454
2 0.150477 2.20369 0.172504
2 1.94998 2.17862 1.8778
2 3.75071 0.033342 1.97657
2 3.82679 0.148065 5.15962
2 2.15628 3.83037 7.41469
3 1.93747 2.20644 4.91461
3 1.83165 1.45963 9.36219
3 3.93016 1.53176 11.0735
1 0.00320992 3.36715 11.7743
1 2.2018 2.04183 0.0410328
1 1.91317 1.9096 6.90518
16
Atoms. Timestep: 4700
2 2.00393 3.73716 10.8949
2 0.0129477 2.05119 3.49336
2 3.83822 3.73802 9.12967
2 2.11736 3.96938 3.63024
2 3.76712 1.64434 7.20346
2 0.013895 2.04275 0.269463
2 2.07173 2.2796 1.93221
2 0.14745 0.154158 2.0688
2 3.93776 0.0937706 5.1642
2 1.44679 3.6357 7.15083
3 1.95584 2.01448 5.04645
3 2.0214 1.63801 9.28422
3 0.0620389 1.82494 10.9507
1 3.93395 3.9056 11.4816
1 2.08399 2.04588 0.0900704
1 1.74578 1.69845 7.14737
16
Atoms. Timestep: 4800
2 1.80014 3.86589 10.8455
2 3.93979 1.86121 3.50265
2 3.93803 3.84078 9.0011
2 2.02191 3.89908 3.59166
2 0.137873 1.9697 7.22576
2 3.9458 1.96175 0.439005
2 2.02423 1.83844 2.03148
2 3.91446 3.91913 1.98623
2 3.98441 3.94117 5.19224
2 2.19853 0.0507072 7.25186
3 1.93174 1.97991 4.96913
3 1.77914 1.94397 9.26075
3 3.74102 1.70873 10.8744
1 3.88038 3.6364 11.6716
1 2.00918 2.10669 0.192787
1 2.09815 2.06001 7.06049
16
Atoms. Timestep: 4900
2 1.84336 3.91705 11.0538
2 3.93396 1.92978 3.52523
2 3.92848 0.0102877 8.98581
2 2.03923 3.73231 3.65159
2 3.97788 1.86282 6.7878
2 3.85267 1.66866 0.256966
2 1.95243 1.81025 1.94463
2 3.8618 3.96314 2.12351
2 3.98567 3.92707 5.19012
2 2.01175 3.99842 7.14745
3 1.99892 1.7928 5.08456
3 2.05235 2.10175 9.38394
3 3.95745 2.07218 11.022
1 3.82247 0.194871 11.4811
1 1.95636 1.5433 0.0855863
1 1.99055 2.00251 7.37107
16
Atoms. Timestep: 5000
2 2.29624 0.478568 10.9029
2 3.91199 1.56171 3.41293
2 3.90843 3.94076 8.97749
2 1.89777 3.89583 3.49522
2 3.77866 2.05292 7.4473
2 3.97495 1.6878 0.317624
2 1.90536 1.91219 1.99952
2 3.89207 3.67062 2.12666
2 3.87609 3.66187 5.19913
2 1.67589 3.74607 7.14593
3 1.93286 1.74812 5.05373
3 2.09963 2.15674 9.21979
3 0.072837 2.28977 10.8771
1 0.511484 0.234047 11.6364
1 2.1179 1.71209 0.134341
1 1.81681 1.70314 7.13464
16
Atoms. Timestep: 5100
2 1.86677 0.0923859 11.0907
2 3.91652 1.84525 3.43469
2 0.147276 0.170836 9.10153
2 1.82137 3.68115 3.59683
2 0.0609416 1.76551 6.96417
2 3.80639 1.61663 0.321333
2 1.86876 1.58108 1.97886
2 3.86787 3.70492 2.01835
2 3.92611 0.0070978 5.14521
2 2.24997 0.0671751 7.12266
3 1.90289 1.72119 5.03694
3 2.04983 2.3161 9.32386
3 3.92979 2.15132 11.0352
1 3.73529 0.0847352 11.6759
1 1.89104 1.72562 0.105532
1 2.08393 2.16651 7.11598
16
Atoms. Timestep: 5200
2 1.88948 3.95826 10.7135
2 3.9403 1.78103 3.60208
2 3.85018 3.99715 9.00331
2 2.03113 3.79476 3.74207
2 0.102235 1.96957 7.21162
2 3.85346 1.98062 0.323758
2 1.95857 1.86657 2.02213
2 0.172522 3.7262 1.99477
2 0.0807052 3.85289 5.2334
2 1.81403 3.9634 7.38847
3 1.9283 1.73576 4.99709
3 1.87717 2.06112 9.22065
3 3.84319 2.05302 10.8395
1 0.0468655 0.12119 11.4314
1 1.87375 1.87163 0.139736
1 2.10722 1.94466 6.88045
16
Atoms. Timestep: 5300
2 1.8422 3.98702 11.0248
2 0.170774 2.06117 3.49153
2 3.84027 3.7928 8.99723
2 1.70322 0.0118415 3.67917
2 3.57014 1.80577 7.13281
2 0.32457 1.94019 0.33842
2 2.22261 2.06888 2.12611
2 0.0525977 3.91312 2.01798
2 3.84365 0.0138894 5.2435
2 1.93057 3.75633 6.92329
3 2.21602 1.8998 5.07976
3 1.82238 1.83006 9.21965
3 3.89787 1.81 10.899
1 3.7811 3.76579 11.6562
1 2.3184 1.92723 0.220831
1 1.51572 1.68215 7.03113
16
Atoms. Timestep: 5400
2 1.74563 3.61869 10.8492
2 3.99945 2.04406 3.46498
2 3.82709 3.84139 9.08034
2 2.05551 0.0751707 3.54114
2 0.0444075 1.85978 7.29904
2 0.0508728 2.15515 0.153564
2 2.01797 1.99606 1.98474
2 0.254112 0.00398222 1.96627
2 0.23095 3.97638 5.12244
2 1.68746 3.85606 7.39119
3 2.059 2.08831 5.08046
3 1.60704 1.50326 9.21155
3 3.83698 1.7238 11.0793
1 3.56816 3.68325 11.5983
1 2.04636 2.29592 0.123433
1 2.1313 2.01257 6.96464
16
Atoms. Timestep: 5500
2 1.91783 3.80744 11.0617
2 0.0349433 2.10414 3.49109
2 3.83766 3.7072 9.07111
2 1.93562 0.0548549 3.62026
2 3.78755 1.85444 7.0861
2 3.93031 2.12942 0.231853
2 2.08724 1.93598 2.11994
2 0.0932245 0.147483 1.93945
2 0.125511 3.75346 5.22116
2 2.06272 3.84658 7.19907
3 2.09158 2.00982 5.01308
3 1.76086 1.79867 9.19726
3 3.79578 1.67459 10.9401
1 3.91611 3.69322 11.6152
1 1.86313 2.03931 0.249562
1 1.77381 1.91443 6.97384
16
Atoms. Timestep: 5600
2 1.9461 3.8377 10.6801
2 3.9434 2.02905 3.66086
2 3.90971 3.84275 8.9293
2 1.78122 3.92414 3.74585
2 3.9879 1.9209 7.20227
2 0.130602 1.79552 0.3181
2 1.99122 1.88371 2.21994
2 3.88953 3.90369 2.06023
2 3.82906 3.83219 5.18742
2 1.7127 3.98658 7.15061
3 1.93422 1.90828 5.00649
3 2.17011 2.00918 9.12436
3 0.0962592 1.95753 10.9182
1 3.99496 3.96165 11.4635
1 2.05554 1.73786 0.357068
1 1.99044 1.87428 6.98395
16
Atoms. Timestep: 5700
2 2.05258 0.0195829 10.9845
2 3.87262 1.79816 3.57441
2 0.045923 0.140501 8.99139
2 2.01147 3.71645 3.68163
2 3.9079 1.96889 7.11955
2 3.65901 1.99854 0.147357
2 1.85558 1.70902 2.08021
2 0.068699 3.71492 1.98719
2 3.97468 3.75465 5.06881
2 2.12191 3.99608 7.27822
3 1.8467 1.7397 5.07631
3 2.0985 2.05503 9.22844
3 3.9022 2.04167 10.9576
1 0.231326 0.119931 11.5865
1 1.6047 2.08819 0.262107
1 1.86522 2.07713 7.04317
16
Atoms. Timestep: 5800
2 1.93798 0.273375 10.9579
2 3.8908 1.95859 3.4365
2 0.0302932 3.89613 9.07806
2 1.76693 3.72955 3.54743
2 0.232967 1.99654 7.45632
2 3.97999 1.81548 0.115125
2 1.89054 1.75655 2.07264
2 3.70519 3.7753 1.95834
2 3.84079 0.067692 5.04873
2 2.11986 3.78081 7.27074
3 1.8024 1.73908 5.04523
3 2.05584 1.974 9.15971
3 0.0696271 2.09818 11.0449
1 3.90196 0.0239971 11.6325
1 1.91166 1.64385 0.210626
1 2.25397 1.7937 6.9866
16
Atoms. Timestep: 5900
2 2.23877 3.75235 10.9082
2 3.85567 1.74831 3.58596
2 3.9509 3.93375 9.12239
2 1.98051 0.131242 3.65736
2 3.74748 1.75362 7.03621
2 3.91226 1.72026 0.166128
2 1.8657 2.22659 2.04865
2 3.80625 3.73331 2.02174
2 3.93059 3.81833 5.28842
2 1.91931 3.94137 7.13439
3 1.89829 2.05286 5.01412
3 2.00284 2.02275 9.14795
3 0.235515 1.97234 11.0124
1 0.30821 0.0212642 11.691
1 1.88565 1.75954 0.216126
1 1.76693 1.86901 7.12077
16
Atoms. Timestep: 6000
2 2.10035 3.81471 10.8088
2 3.89335 2.10222 3.66367
2 0.0210659 3.77845 8.87064
2 1.96765 3.83005 3.8105
2 0.0184682 1.95769 6.97324
2 3.83755 2.01519 0.373608
2 1.82797 1.85673 2.14043
2 3.87396 0.127733 2.15312
2 3.93184 0.0337631 5.26438
2 1.95304 3.89231 6.99893
3 1.84335 1.84288 5.05487
3 1.98189 1.83126 9.20554
3 0.100946 1.68866 10.8644
1 0.059181 3.74695 11.4721
1 1.91311 2.19422 0.324361
1 1.98341 1.9278 7.085
16
Atoms. Timestep: 6100
2 1.91403 3.77696 10.8629
2 0.070058 1.80907 3.50061
2 3.95623 3.92545 8.87099
2 1.91894 3.94531 3.66445
2 0.099339 1.94243 7.35079
2 3.94114 2.17176 0.386246
2 2.00003 1.83028 2.03503
2 3.78324 3.98445 2.02386
2 3.86418 3.79887 5.12769
2 1.99125 3.98543 7.23492
3 1.87676 2.01148 4.98821
3 1.97592 1.71276 9.20359
3 3.92153 1.85351 10.9644
1 3.854 3.77097 11.6337
1 2.02872 2.14119 0.195986
1 2.2444 2.02709 6.92253
16
Atoms. Timestep: 6200
2 1.87341 0.0862065 11.0766
2 0.168999 2.03285 3.43433
2 3.86674 3.92442 9.23361
2 2.22482 3.93206 3.54779
2 3.77272 1.73073 7.18745
2 3.90607 1.46139 0.0629661
2 1.90185 2.06756 1.69419
2 0.0790117 0.0331798 1.98142
2 0.00730056 3.96396 5.11092
2 1.85785 3.81114 7.24258
3 1.99296 1.96031 5.11336
3 2.00609 1.94951 9.3474
3 3.77016 1.99491 11.1432
1 0.0269627 0.00244199 11.6573
1 2.00771 1.35238 0.0188778
1 1.63495 1.75073 7.17559
16
Atoms. Timestep: 6300
2 1.81508 0.0417388 10.8167
2 0.118533 1.69357 3.43433
2 3.73116 3.90018 9.08408
2 2.09438 3.8207 3.60403
2 0.047705 2.05609 7.18417
2 0.231451 1.67184 0.431764
2 2.0123 1.80657 1.98239
2 3.82183 3.56189 1.88665
2 0.0467416 3.86357 5.26707
2 1.85358 3.98 7.28587
3 1.8987 1.95071 5.15331
3 1.76983 2.19874 9.15901
3 3.85284 2.12845 10.8797
1 3.68551 0.368348 11.635
1 2.32422 1.79537 0.193724
1 2.21994 1.98799 7.0972
16
Atoms. Timestep: 6400
2 1.89993 0.0696344 10.9798
2 0.0852773 1.88744 3.53739
2 3.90468 0.0744499 8.78108
2 2.1128 3.58192 3.67158
2 3.82238 1.98513 7.00559
2 3.92292 1.85361 0.41302
2 1.98736 1.67618 2.03846
2 3.94057 3.92913 2.16047
2 3.95202 3.9166 5.3027
2 2.05909 0.0312784 7.0937
3 2.08216 1.59304 5.08695
3 1.79304 2.10419 9.22284
3 3.87501 2.05471 10.8992
1 3.89421 3.97097 11.504
1 1.98507 1.92208 0.263769
1 1.7558 1.98828 7.06195
16
Atoms. Timestep: 6500
2 2.02013 3.88034 10.8385
2 3.84951 1.82516 3.50231
2 0.0598795 3.87134 9.02057
2 2.01285 0.0545662 3.56604
2 0.136009 1.93403 7.18618
2 3.87062 1.89257 0.19458
2 1.9305 2.09363 1.87451
2 3.99948 3.99256 2.09218
2 3.81749 3.84212 5.15911
2 1.78414 3.73041 7.33869
3 1.85102 2.05546 4.96161
3 1.96933 1.81334 9.29904
3 0.0601596 1.88351 11.172
1 3.83446 3.91971 11.6169
1 1.94313 1.73166 0.130485
1 2.1448 1.78615 7.00696
16
Atoms. Timestep: 6600
2 2.07667 3.70832 10.9622
2 3.86334 2.05525 3.51691
2 0.0288624 3.63899 9.14994
2 1.85653 0.131749 3.59996
2 3.95751 1.79678 7.35093
2 3.85557 1.90527 0.304349
2 1.83857 2.00895 1.99875
2 3.6695 0.084603 2.02208
2 3.86295 0.145845 5.11524
2 2.36949 3.85874 7.2309
3 1.94779 2.2184 4.95231
3 2.04008 1.63181 9.19022
3 3.99204 1.66887 10.8082
1 0.151098 3.58113 11.6149
1 1.8905 1.95398 0.179911
1 1.87828 1.99056 7.02769
16
Atoms. Timestep: 6700
2 2.01144 3.63769 10.7741
2 3.74889 1.99644 3.59304
2 0.0469077 3.8785 9.03368
2 2.01545 3.96417 3.61856