LAMMPS (16 Feb 2016)
Reading data file ...
  orthogonal box = (0 0 0) to (2.47488 2.47488 27.75)
  1 by 1 by 1 MPI processor grid
  reading atoms ...
  10 atoms
RuNNer pair style directory           : RuNNer/
Show extrapolation warnings           : yes
Show extrapolation warning summary    : no
Reset extrapolation warning counter   : no
Maximum allowed extrapolation warnings: 0
-----------------------------------------------------------------------
Starting RuNNer pair style setup...
-----------------------------------------------------------------------
Analyzing input.nn...
-----------------------------------------------------------------------
Number of elements:  1
Element  0: Cu (29)
-----------------------------------------------------------------------
Free atom energy of element  0 (Cu) =  -1.66262770E+03
-----------------------------------------------------------------------
normalize_nodes detected.
-----------------------------------------------------------------------
Number of hidden layers:  2
-----------------------------------------------------------------------
Element  0 (Cu): layer  0:  30 nodes
Element  0 (Cu): layer  1:  30 nodes
Element  0 (Cu): layer  2:   1 nodes
Element  0 (Cu): layer  0: activation function:  2
Element  0 (Cu): layer  1: activation function:  2
Element  0 (Cu): layer  2: activation function:  1
-----------------------------------------------------------------------
scale_symmetry_functions detected.
-----------------------------------------------------------------------
scalemin = -1.000000
-----------------------------------------------------------------------
scalemax = 1.000000
-----------------------------------------------------------------------
Element  0 (Cu): 51 symmetry functions
-----------------------------------------------------------------------
Finished analyzing input.nn.
-----------------------------------------------------------------------
Element  0 (Cu): layer  0 allocated, dim: ( 51, 30), act. func.:  2
Element  0 (Cu): layer  1 allocated, dim: ( 30, 30), act. func.:  2
Element  0 (Cu): layer  2 allocated, dim: ( 30,  1), act. func.:  1
-----------------------------------------------------------------------
Element  0 (Cu): Reading RuNNer/weights.029.data...
Element  0 (Cu): weights:   2460, bias:   61, total:   2521
-----------------------------------------------------------------------
Sorting according to   type.
Sorting according to     rc.
Sorting according to    eta.
Sorting according to   zeta.
Sorting according to lambda.
Sorting according to     rs.
Sorting according to     e1.
Sorting according to     e2.
Printing symmetry functions...
-----------------------------------------------------------------------
short range atomic symmetry functions element Cu
-----------------------------------------------------------------------
   1 Cu  2 Cu              0.001   0.000  11.338
   2 Cu  2 Cu              0.010   0.000  11.338
   3 Cu  2 Cu              0.020   0.000  11.338
   4 Cu  2 Cu              0.035   0.000  11.338
   5 Cu  2 Cu              0.060   0.000  11.338
   6 Cu  2 Cu              0.100   0.000  11.338
   7 Cu  2 Cu              0.200   0.000  11.338
   8 Cu  2 Cu              0.400   0.000  11.338
   9 Cu  3 Cu Cu   0.000  -1.000   1.000  11.338
  10 Cu  3 Cu Cu   0.000   1.000   1.000  11.338
  11 Cu  3 Cu Cu   0.000  -1.000   2.000  11.338
  12 Cu  3 Cu Cu   0.000   1.000   2.000  11.338
  13 Cu  3 Cu Cu   0.003  -1.000   1.000  11.338
  14 Cu  3 Cu Cu   0.003   1.000   1.000  11.338
  15 Cu  3 Cu Cu   0.003  -1.000   2.000  11.338
  16 Cu  3 Cu Cu   0.003   1.000   2.000  11.338
  17 Cu  3 Cu Cu   0.008  -1.000   1.000  11.338
  18 Cu  3 Cu Cu   0.008   1.000   1.000  11.338
  19 Cu  3 Cu Cu   0.008  -1.000   2.000  11.338
  20 Cu  3 Cu Cu   0.008   1.000   2.000  11.338
  21 Cu  3 Cu Cu   0.015  -1.000   1.000  11.338
  22 Cu  3 Cu Cu   0.015   1.000   1.000  11.338
  23 Cu  3 Cu Cu   0.015  -1.000   2.000  11.338
  24 Cu  3 Cu Cu   0.015   1.000   2.000  11.338
  25 Cu  3 Cu Cu   0.015  -1.000   4.000  11.338
  26 Cu  3 Cu Cu   0.015   1.000   4.000  11.338
  27 Cu  3 Cu Cu   0.015  -1.000  16.000  11.338
  28 Cu  3 Cu Cu   0.015   1.000  16.000  11.338
  29 Cu  3 Cu Cu   0.025  -1.000   1.000  11.338
  30 Cu  3 Cu Cu   0.025   1.000   1.000  11.338
  31 Cu  3 Cu Cu   0.025  -1.000   2.000  11.338
  32 Cu  3 Cu Cu   0.025   1.000   2.000  11.338
  33 Cu  3 Cu Cu   0.025  -1.000   4.000  11.338
  34 Cu  3 Cu Cu   0.025   1.000   4.000  11.338
  35 Cu  3 Cu Cu   0.025  -1.000  16.000  11.338
  36 Cu  3 Cu Cu   0.025   1.000  16.000  11.338
  37 Cu  3 Cu Cu   0.045  -1.000   1.000  11.338
  38 Cu  3 Cu Cu   0.045   1.000   1.000  11.338
  39 Cu  3 Cu Cu   0.045  -1.000   2.000  11.338
  40 Cu  3 Cu Cu   0.045   1.000   2.000  11.338
  41 Cu  3 Cu Cu   0.045  -1.000   4.000  11.338
  42 Cu  3 Cu Cu   0.045   1.000   4.000  11.338
  43 Cu  3 Cu Cu   0.045  -1.000  16.000  11.338
  44 Cu  3 Cu Cu   0.045   1.000  16.000  11.338
  45 Cu  3 Cu Cu   0.080  -1.000   1.000  11.338
  46 Cu  3 Cu Cu   0.080   1.000   1.000  11.338
  47 Cu  3 Cu Cu   0.080  -1.000   2.000  11.338
  48 Cu  3 Cu Cu   0.080   1.000   2.000  11.338
  49 Cu  3 Cu Cu   0.080  -1.000   4.000  11.338
  50 Cu  3 Cu Cu   0.080   1.000   4.000  11.338
  51 Cu  3 Cu Cu   0.080   1.000  16.000  11.338
-----------------------------------------------------------------------
Reading scaling.data...
Finished reading scaling.data.
-----------------------------------------------------------------------
rcmax = 11.338360
-----------------------------------------------------------------------
Grouping symmetry functions...
Printing symmetry function groups...
-----------------------------------------------------------------------
short range atomic symmetry functions groups of element Cu
-----------------------------------------------------------------------
   1 Cu  2 Cu                  *       *  11.338    8
                           0.001   0.000                 1    1
                           0.010   0.000                 2    2
                           0.020   0.000                 3    3
                           0.035   0.000                 4    4
                           0.060   0.000                 5    5
                           0.100   0.000                 6    6
                           0.200   0.000                 7    7
                           0.400   0.000                 8    8
   2 Cu  3 Cu Cu       *       *       *  11.338   43
                   0.000  -1.000   1.000                 1    9    1
                   0.000   1.000   1.000                 2   10    1
                   0.000  -1.000   2.000                 3   11    1
                   0.000   1.000   2.000                 4   12    1
                   0.003  -1.000   1.000                 5   13    5
                   0.003   1.000   1.000                 6   14    5
                   0.003  -1.000   2.000                 7   15    5
                   0.003   1.000   2.000                 8   16    5
                   0.008  -1.000   1.000                 9   17    9
                   0.008   1.000   1.000                10   18    9
                   0.008  -1.000   2.000                11   19    9
                   0.008   1.000   2.000                12   20    9
                   0.015  -1.000   1.000                13   21   13
                   0.015   1.000   1.000                14   22   13
                   0.015  -1.000   2.000                15   23   13
                   0.015   1.000   2.000                16   24   13
                   0.015  -1.000   4.000                17   25   13
                   0.015   1.000   4.000                18   26   13
                   0.015  -1.000  16.000                19   27   13
                   0.015   1.000  16.000                20   28   13
                   0.025  -1.000   1.000                21   29   21
                   0.025   1.000   1.000                22   30   21
                   0.025  -1.000   2.000                23   31   21
                   0.025   1.000   2.000                24   32   21
                   0.025  -1.000   4.000                25   33   21
                   0.025   1.000   4.000                26   34   21
                   0.025  -1.000  16.000                27   35   21
                   0.025   1.000  16.000                28   36   21
                   0.045  -1.000   1.000                29   37   29
                   0.045   1.000   1.000                30   38   29
                   0.045  -1.000   2.000                31   39   29
                   0.045   1.000   2.000                32   40   29
                   0.045  -1.000   4.000                33   41   29
                   0.045   1.000   4.000                34   42   29
                   0.045  -1.000  16.000                35   43   29
                   0.045   1.000  16.000                36   44   29
                   0.080  -1.000   1.000                37   45   37
                   0.080   1.000   1.000                38   46   37
                   0.080  -1.000   2.000                39   47   37
                   0.080   1.000   2.000                40   48   37
                   0.080  -1.000   4.000                41   49   37
                   0.080   1.000   4.000                42   50   37
                   0.080   1.000  16.000                43   51   37
-----------------------------------------------------------------------
RuNNer pair style setup completed.
-----------------------------------------------------------------------
Neighbor list info ...
  1 neighbor list requests
  update every 1 steps, delay 10 steps, check yes
  max neighbors/atom: 2000, page size: 100000
  master list distance cutoff = 8.01
  ghost atom cutoff = 8.01
  binsize = 4.005, bins = 1 1 7
Setting up Verlet run ...
  Unit style  : metal
  Current step: 0
  Time step   : 0.002
Memory usage per processor = 2.91085 Mbytes
Step Temp E_pair E_mol TotEng Press 
       0          300   -452459.74            0   -452459.39    111027.37 
       5     253.4181   -452459.69            0   -452459.39    115143.58 
      10    191.47665   -452459.61            0   -452459.39    118484.98 
      15     141.3367   -452459.55            0   -452459.39    120228.97 
      20    122.54844   -452459.53            0   -452459.38    119835.68 
      25    134.33132   -452459.54            0   -452459.38    117474.74 
      30    162.30462   -452459.56            0   -452459.37    113761.09 
      35    195.47816   -452459.59            0   -452459.36    109173.02 
      40    234.68927   -452459.61            0   -452459.34    103791.46 
      45    284.36068   -452459.65            0   -452459.32    97670.501 
      50      340.011   -452459.69            0   -452459.29    91052.777 
Loop time of 0.515887 on 1 procs for 50 steps with 10 atoms

Performance: 16.748 ns/day, 1.433 hours/ns, 96.920 timesteps/s
99.0% CPU use with 1 MPI tasks x no OpenMP threads

MPI task timing breakdown:
Section |  min time  |  avg time  |  max time  |%varavg| %total
---------------------------------------------------------------
Pair    | 0.51473    | 0.51473    | 0.51473    |   0.0 | 99.78
Neigh   | 0.00018191 | 0.00018191 | 0.00018191 |   0.0 |  0.04
Comm    | 0.00018597 | 0.00018597 | 0.00018597 |   0.0 |  0.04
Output  | 0.00059772 | 0.00059772 | 0.00059772 |   0.0 |  0.12
Modify  | 0.00014973 | 0.00014973 | 0.00014973 |   0.0 |  0.03
Other   |            | 4.339e-05  |            |       |  0.01

Nlocal:    10 ave 10 max 10 min
Histogram: 1 0 0 0 0 0 0 0 0 0
Nghost:    781 ave 781 max 781 min
Histogram: 1 0 0 0 0 0 0 0 0 0
Neighs:    0 ave 0 max 0 min
Histogram: 1 0 0 0 0 0 0 0 0 0
FullNghs:  1658 ave 1658 max 1658 min
Histogram: 1 0 0 0 0 0 0 0 0 0

Total # of neighbors = 1658
Ave neighs/atom = 165.8
Neighbor list builds = 5
Dangerous builds = 0
System init for write_restart ...
Total wall time: 0:00:00
