ITEM: TIMESTEP
0
ITEM: NUMBER OF ATOMS
10
ITEM: BOX BOUNDS pp pp pp
0.0000000000000000e+00 2.4748750196253857e+00
0.0000000000000000e+00 2.4748750196253857e+00
0.0000000000000000e+00 2.7750011014717785e+01
ITEM: ATOMS id type xs ys zs
1 1 0 0 0.216216
2 1 0.5 0.5 0.279279
3 1 0 0 0.342342
4 1 0.5 0.5 0.405405
5 1 0 0 0.468468
6 1 0.5 0.5 0.531532
7 1 0 0 0.594595
8 1 0.5 0.5 0.657658
9 1 0 0 0.720721
10 1 0.5 0.5 0.783784
ITEM: TIMESTEP
1
ITEM: NUMBER OF ATOMS
10
ITEM: BOX BOUNDS pp pp pp
0.0000000000000000e+00 2.4748750196253857e+00
0.0000000000000000e+00 2.4748750196253857e+00
0.0000000000000000e+00 2.7750011014717785e+01
ITEM: ATOMS id type xs ys zs
1 1 0.000183672 0.00072627 0.216494
2 1 0.49888 0.500016 0.279285
3 1 -0.000526912 0.00284863 0.342415
4 1 0.500464 0.498587 0.405368
5 1 0.000616121 -0.00164676 0.468537
6 1 0.500917 0.498308 0.531437
7 1 -0.00148173 -0.001661 0.594681
8 1 0.497486 0.498399 0.657518
9 1 0.00183517 0.00254189 0.720628
10 1 0.501628 0.501882 0.783638
ITEM: TIMESTEP
2
ITEM: NUMBER OF ATOMS
10
ITEM: BOX BOUNDS pp pp pp
0.0000000000000000e+00 2.4748750196253857e+00
0.0000000000000000e+00 2.4748750196253857e+00
0.0000000000000000e+00 2.7750011014717785e+01
ITEM: ATOMS id type xs ys zs
1 1 0.000365488 0.00145167 0.216758
2 1 0.497762 0.500037 0.279287
3 1 -0.00105322 0.00568739 0.342488
4 1 0.500927 0.497179 0.405331
5 1 0.0012322 -0.00329293 0.468604
6 1 0.501829 0.496616 0.531343
7 1 -0.00296139 -0.00332166 0.594766
8 1 0.494979 0.496803 0.657379
9 1 0.00366386 0.00507692 0.720539
10 1 0.503256 0.503764 0.783506
ITEM: TIMESTEP
3
ITEM: NUMBER OF ATOMS
10
ITEM: BOX BOUNDS pp pp pp
0.0000000000000000e+00 2.4748750196253857e+00
0.0000000000000000e+00 2.4748750196253857e+00
0.0000000000000000e+00 2.7750011014717785e+01
ITEM: ATOMS id type xs ys zs
1 1 0.000543501 0.0021753 0.217008
2 1 0.49665 0.500067 0.279286
3 1 -0.0015783 0.00850642 0.342559
4 1 0.501387 0.495781 0.405295
5 1 0.00184821 -0.00493793 0.468671
6 1 0.502735 0.494924 0.53125
7 1 -0.00443713 -0.00498163 0.594849
8 1 0.492488 0.495219 0.657241
9 1 0.00547969 0.00759831 0.720455
10 1 0.504884 0.505648 0.783386
ITEM: TIMESTEP
4
ITEM: NUMBER OF ATOMS
10
ITEM: BOX BOUNDS pp pp pp
0.0000000000000000e+00 2.4748750196253857e+00
0.0000000000000000e+00 2.4748750196253857e+00
0.0000000000000000e+00 2.7750011014717785e+01
ITEM: ATOMS id type xs ys zs
1 1 0.000715687 0.00289621 0.217242
2 1 0.495546 0.500112 0.279284
3 1 -0.00210145 0.0112959 0.342629
4 1 0.501844 0.4944 0.405262
5 1 0.00246415 -0.00658121 0.468735
6 1 0.50363 0.493233 0.531161
7 1 -0.00590727 -0.00664056 0.594927
8 1 0.49002 0.493651 0.657106
9 1 0.0072764 0.0100994 0.720374
10 1 0.506512 0.507534 0.783279
ITEM: TIMESTEP
5
ITEM: NUMBER OF ATOMS
10
ITEM: BOX BOUNDS pp pp pp
0.0000000000000000e+00 2.4748750196253857e+00
0.0000000000000000e+00 2.4748750196253857e+00
0.0000000000000000e+00 2.7750011014717785e+01
ITEM: ATOMS id type xs ys zs
1 1 0.000879958 0.00361346 0.217461
2 1 0.494454 0.500175 0.279281
3 1 -0.00262199 0.014046 0.342697
4 1 0.502296 0.493041 0.405231
5 1 0.00308002 -0.00822224 0.468797
6 1 0.50451 0.491542 0.531075
7 1 -0.00737032 -0.00829809 0.595001
8 1 0.487583 0.492106 0.656974
9 1 0.00904789 0.0125737 0.720298
10 1 0.508141 0.509423 0.783186
ITEM: TIMESTEP
6
ITEM: NUMBER OF ATOMS
10
ITEM: BOX BOUNDS pp pp pp
0.0000000000000000e+00 2.4748750196253857e+00
0.0000000000000000e+00 2.4748750196253857e+00
0.0000000000000000e+00 2.7750011014717785e+01
ITEM: ATOMS id type xs ys zs
1 1 0.00103417 0.00432607 0.217663
2 1 0.493376 0.500262 0.279278
3 1 -0.00313914 0.0167473 0.342762
4 1 0.502742 0.491708 0.405203
5 1 0.00369582 -0.00986052 0.468855
6 1 0.505374 0.489851 0.530994
7 1 -0.00882496 -0.00995386 0.595068
8 1 0.485184 0.490589 0.656846
9 1 0.0107882 0.015015 0.720225
10 1 0.50977 0.511316 0.783105
ITEM: TIMESTEP
7
ITEM: NUMBER OF ATOMS
10
ITEM: BOX BOUNDS pp pp pp
0.0000000000000000e+00 2.4748750196253857e+00
0.0000000000000000e+00 2.4748750196253857e+00
0.0000000000000000e+00 2.7750011014717785e+01
ITEM: ATOMS id type xs ys zs
1 1 0.00117617 0.00503312 0.217847
2 1 0.492315 0.500376 0.279276
3 1 -0.00365214 0.0193902 0.342824
4 1 0.503181 0.490409 0.40518
5 1 0.00431156 -0.0114955 0.468908
6 1 0.506216 0.48816 0.530919
7 1 -0.01027 -0.0116074 0.595128
8 1 0.48283 0.489104 0.656722
9 1 0.0124917 0.017417 0.720157
10 1 0.5114 0.513213 0.783038
ITEM: TIMESTEP
8
ITEM: NUMBER OF ATOMS
10
ITEM: BOX BOUNDS pp pp pp
0.0000000000000000e+00 2.4748750196253857e+00
0.0000000000000000e+00 2.4748750196253857e+00
0.0000000000000000e+00 2.7750011014717785e+01
ITEM: ATOMS id type xs ys zs
1 1 0.00130376 0.00573367 0.218013
2 1 0.491274 0.500523 0.279277
3 1 -0.00416018 0.0219655 0.342882
4 1 0.503611 0.489147 0.405161
5 1 0.00492723 -0.0131268 0.468957
6 1 0.507036 0.486469 0.530851
7 1 -0.0117044 -0.0132583 0.59518
8 1 0.48053 0.487657 0.656604
9 1 0.0141528 0.0197736 0.720093
10 1 0.513031 0.515116 0.782984
ITEM: TIMESTEP
9
ITEM: NUMBER OF ATOMS
10
ITEM: BOX BOUNDS pp pp pp
0.0000000000000000e+00 2.4748750196253857e+00
0.0000000000000000e+00 2.4748750196253857e+00
0.0000000000000000e+00 2.7750011014717785e+01
ITEM: ATOMS id type xs ys zs
1 1 0.00141477 0.00642685 0.21816
2 1 0.490255 0.500705 0.279279
3 1 -0.00466242 0.0244643 0.342936
4 1 0.504031 0.487929 0.405148
5 1 0.00554279 -0.0147537 0.469
6 1 0.50783 0.484779 0.530789
7 1 -0.0131271 -0.0149058 0.595222
8 1 0.478288 0.486252 0.656491
9 1 0.0157661 0.0220792 0.720032
10 1 0.514662 0.517024 0.782943
ITEM: TIMESTEP
10
ITEM: NUMBER OF ATOMS
10
ITEM: BOX BOUNDS pp pp pp
0.0000000000000000e+00 2.4748750196253857e+00
0.0000000000000000e+00 2.4748750196253857e+00
0.0000000000000000e+00 2.7750011014717785e+01
ITEM: ATOMS id type xs ys zs
1 1 0.00150709 0.00711186 0.218288
2 1 0.489262 0.500927 0.279286
3 1 -0.00515802 0.0268776 0.342985
4 1 0.50444 0.486759 0.40514
5 1 0.00615818 -0.0163756 0.469036
6 1 0.508594 0.483089 0.530736
7 1 -0.0145371 -0.0165496 0.595254
8 1 0.476113 0.484894 0.656384
9 1 0.0173265 0.0243281 0.719977
10 1 0.516293 0.518939 0.782915
ITEM: TIMESTEP
11
ITEM: NUMBER OF ATOMS
10
ITEM: BOX BOUNDS pp pp pp
0.0000000000000000e+00 2.4748750196253857e+00
0.0000000000000000e+00 2.4748750196253857e+00
0.0000000000000000e+00 2.7750011014717785e+01
ITEM: ATOMS id type xs ys zs
1 1 0.00157862 0.00778796 0.218396
2 1 0.488298 0.501192 0.279295
3 1 -0.00564613 0.0291972 0.343029
4 1 0.504837 0.485642 0.405139
5 1 0.0067733 -0.0179919 0.469066
6 1 0.509328 0.481398 0.530691
7 1 -0.0159335 -0.0181888 0.595275
8 1 0.474011 0.483586 0.656283
9 1 0.018829 0.0265151 0.719925
10 1 0.517926 0.520861 0.7829
ITEM: TIMESTEP
12
ITEM: NUMBER OF ATOMS
10
ITEM: BOX BOUNDS pp pp pp
0.0000000000000000e+00 2.4748750196253857e+00
0.0000000000000000e+00 2.4748750196253857e+00
0.0000000000000000e+00 2.7750011014717785e+01
ITEM: ATOMS id type xs ys zs
1 1 0.0016274 0.00845454 0.218483
2 1 0.487363 0.501505 0.279309
3 1 -0.00612589 0.031415 0.343067
4 1 0.505221 0.484583 0.405145
5 1 0.00738799 -0.019602 0.46909
6 1 0.510027 0.479708 0.530654
7 1 -0.0173151 -0.019823 0.595285
8 1 0.471987 0.482333 0.65619
9 1 0.0202692 0.0286352 0.719879
10 1 0.519558 0.522791 0.782897
ITEM: TIMESTEP
13
ITEM: NUMBER OF ATOMS
10
ITEM: BOX BOUNDS pp pp pp
0.0000000000000000e+00 2.4748750196253857e+00
0.0000000000000000e+00 2.4748750196253857e+00
0.0000000000000000e+00 2.7750011014717785e+01
ITEM: ATOMS id type xs ys zs
1 1 0.00165152 0.00911111 0.218551
2 1 0.486462 0.501867 0.279328
3 1 -0.00659647 0.0335235 0.3431
4 1 0.505589 0.483585 0.405157
5 1 0.00800204 -0.0212052 0.469105
6 1 0.510689 0.478018 0.530627
7 1 -0.0186811 -0.0214514 0.595282
8 1 0.470049 0.481138 0.656102
9 1 0.0216426 0.0306837 0.719839
10 1 0.521191 0.524729 0.782908
ITEM: TIMESTEP
14
ITEM: NUMBER OF ATOMS
10
ITEM: BOX BOUNDS pp pp pp
0.0000000000000000e+00 2.4748750196253857e+00
0.0000000000000000e+00 2.4748750196253857e+00
0.0000000000000000e+00 2.7750011014717785e+01
ITEM: ATOMS id type xs ys zs
1 1 0.00164924 0.00975729 0.218597
2 1 0.485597 0.502282 0.279351
3 1 -0.00705703 0.0355156 0.343127
4 1 0.505942 0.482653 0.405178
5 1 0.00861516 -0.022801 0.469114
6 1 0.511313 0.476328 0.530609
7 1 -0.0200303 -0.0230733 0.595267
8 1 0.468201 0.480006 0.656022
9 1 0.0229454 0.0326563 0.719803
10 1 0.522824 0.526675 0.78293
ITEM: TIMESTEP
15
ITEM: NUMBER OF ATOMS
10
ITEM: BOX BOUNDS pp pp pp
0.0000000000000000e+00 2.4748750196253857e+00
0.0000000000000000e+00 2.4748750196253857e+00
0.0000000000000000e+00 2.7750011014717785e+01
ITEM: ATOMS id type xs ys zs
1 1 0.00161896 0.0103928 0.218623
2 1 0.484768 0.502753 0.279379
3 1 -0.0075068 0.0373847 0.343147
4 1 0.506279 0.481791 0.405206
5 1 0.009227 -0.0243885 0.469115
6 1 0.511895 0.474638 0.530601
7 1 -0.0213616 -0.0246881 0.59524
8 1 0.46645 0.478938 0.655949
9 1 0.0241737 0.0345488 0.719775
10 1 0.524458 0.52863 0.782966
ITEM: TIMESTEP
16
ITEM: NUMBER OF ATOMS
10
ITEM: BOX BOUNDS pp pp pp
0.0000000000000000e+00 2.4748750196253857e+00
0.0000000000000000e+00 2.4748750196253857e+00
0.0000000000000000e+00 2.7750011014717785e+01
ITEM: ATOMS id type xs ys zs
1 1 0.00155924 0.0110176 0.218628
2 1 0.483978 0.503282 0.279411
3 1 -0.00794502 0.039125 0.343161
4 1 0.506598 0.481 0.405241
5 1 0.0098371 -0.0259671 0.469109
6 1 0.512433 0.472948 0.530602
7 1 -0.0226735 -0.0262948 0.595199
8 1 0.464798 0.477938 0.655883
9 1 0.0253242 0.0363577 0.719752
10 1 0.52609 0.530594 0.783013
ITEM: TIMESTEP
17
ITEM: NUMBER OF ATOMS
10
ITEM: BOX BOUNDS pp pp pp
0.0000000000000000e+00 2.4748750196253857e+00
0.0000000000000000e+00 2.4748750196253857e+00
0.0000000000000000e+00 2.7750011014717785e+01
ITEM: ATOMS id type xs ys zs
1 1 0.00146883 0.0116317 0.218612
2 1 0.48323 0.503871 0.279448
3 1 -0.00837099 0.0407308 0.343168
4 1 0.506898 0.480283 0.405284
5 1 0.0104449 -0.0275359 0.469096
6 1 0.512926 0.471257 0.530611
7 1 -0.0239645 -0.0278928 0.595146
8 1 0.463252 0.477009 0.655824
9 1 0.026394 0.0380795 0.719737
10 1 0.527722 0.532567 0.783072
ITEM: TIMESTEP
18
ITEM: NUMBER OF ATOMS
10
ITEM: BOX BOUNDS pp pp pp
0.0000000000000000e+00 2.4748750196253857e+00
0.0000000000000000e+00 2.4748750196253857e+00
0.0000000000000000e+00 2.7750011014717785e+01
ITEM: ATOMS id type xs ys zs
1 1 0.00134667 0.0122354 0.218575
2 1 0.482523 0.504521 0.27949
3 1 -0.00878405 0.0421976 0.343169
4 1 0.507179 0.479642 0.405335
5 1 0.0110496 -0.0290942 0.469076
6 1 0.51337 0.469567 0.53063
7 1 -0.0252328 -0.029481 0.59508
8 1 0.461815 0.476152 0.655772
9 1 0.0273803 0.0397112 0.719729
10 1 0.529353 0.534549 0.783143
ITEM: TIMESTEP
19
ITEM: NUMBER OF ATOMS
10
ITEM: BOX BOUNDS pp pp pp
0.0000000000000000e+00 2.4748750196253857e+00
0.0000000000000000e+00 2.4748750196253857e+00
0.0000000000000000e+00 2.7750011014717785e+01
ITEM: ATOMS id type xs ys zs
1 1 0.00119191 0.0128289 0.218518
2 1 0.481859 0.505234 0.279535
3 1 -0.00918363 0.0435211 0.343164
4 1 0.507441 0.479079 0.405393
5 1 0.0116505 -0.0306409 0.469049
6 1 0.513765 0.467876 0.530657
7 1 -0.0264764 -0.0310586 0.595002
8 1 0.460491 0.47537 0.655726
9 1 0.0282809 0.0412502 0.719729
10 1 0.530981 0.53654 0.783225
ITEM: TIMESTEP
20
ITEM: NUMBER OF ATOMS
10
ITEM: BOX BOUNDS pp pp pp
0.0000000000000000e+00 2.4748750196253857e+00
0.0000000000000000e+00 2.4748750196253857e+00
0.0000000000000000e+00 2.7750011014717785e+01
ITEM: ATOMS id type xs ys zs
1 1 0.00100388 0.0134128 0.218441
2 1 0.48124 0.506012 0.279583
3 1 -0.00956921 0.0446978 0.343153
4 1 0.507682 0.478595 0.405459
5 1 0.0122466 -0.0321751 0.469017
6 1 0.514106 0.466185 0.530691
7 1 -0.027693 -0.0326246 0.594912
8 1 0.459282 0.474664 0.655687
9 1 0.0290939 0.0426943 0.719738
10 1 0.532608 0.538539 0.783319
ITEM: TIMESTEP
21
ITEM: NUMBER OF ATOMS
10
ITEM: BOX BOUNDS pp pp pp
0.0000000000000000e+00 2.4748750196253857e+00
0.0000000000000000e+00 2.4748750196253857e+00
0.0000000000000000e+00 2.7750011014717785e+01
ITEM: ATOMS id type xs ys zs
1 1 0.000782137 0.0139876 0.218344
2 1 0.480665 0.506854 0.279634
3 1 -0.00994035 0.0457248 0.343136
4 1 0.507903 0.478189 0.405531
5 1 0.0128369 -0.0336956 0.468978
6 1 0.514393 0.464495 0.530733
7 1 -0.0288801 -0.0341779 0.594811
8 1 0.458191 0.474035 0.655653
9 1 0.0298176 0.0440415 0.719755
10 1 0.534231 0.540547 0.783424
ITEM: TIMESTEP
22
ITEM: NUMBER OF ATOMS
10
ITEM: BOX BOUNDS pp pp pp
0.0000000000000000e+00 2.4748750196253857e+00
0.0000000000000000e+00 2.4748750196253857e+00
0.0000000000000000e+00 2.7750011014717785e+01
ITEM: ATOMS id type xs ys zs
1 1 0.000526423 0.0145543 0.218227
2 1 0.480136 0.507761 0.279688
3 1 -0.0102967 0.0466 0.343114
4 1 0.508103 0.477861 0.405609
5 1 0.0134203 -0.0352012 0.468935
6 1 0.514623 0.462804 0.530781
7 1 -0.0300349 -0.0357177 0.5947
8 1 0.457221 0.473485 0.655626
9 1 0.030451 0.0452904 0.719782
10 1 0.53585 0.542563 0.78354
ITEM: TIMESTEP
23
ITEM: NUMBER OF ATOMS
10
ITEM: BOX BOUNDS pp pp pp
0.0000000000000000e+00 2.4748750196253857e+00
0.0000000000000000e+00 2.4748750196253857e+00
0.0000000000000000e+00 2.7750011014717785e+01
ITEM: ATOMS id type xs ys zs
1 1 0.000236676 0.0151136 0.218092
2 1 0.479652 0.508734 0.279742
3 1 -0.0106379 0.0473219 0.343086
4 1 0.508282 0.47761 0.405693
5 1 0.0139954 -0.0366907 0.468888
6 1 0.514794 0.461114 0.530834
7 1 -0.0311546 -0.0372427 0.594578
8 1 0.456374 0.473014 0.655603
9 1 0.0309935 0.04644 0.719818
10 1 0.537465 0.544586 0.783666
ITEM: TIMESTEP
24
ITEM: NUMBER OF ATOMS
10
ITEM: BOX BOUNDS pp pp pp
0.0000000000000000e+00 2.4748750196253857e+00
0.0000000000000000e+00 2.4748750196253857e+00
0.0000000000000000e+00 2.7750011014717785e+01
ITEM: ATOMS id type xs ys zs
1 1 -8.6987e-05 0.0156666 0.217939
2 1 0.479214 0.509771 0.279796
3 1 -0.0109638 0.0478894 0.343054
4 1 0.508441 0.477435 0.405781
5 1 0.0145611 -0.0381624 0.468837
6 1 0.514903 0.459425 0.530892
7 1 -0.0322358 -0.038752 0.594448
8 1 0.455649 0.472622 0.655586
9 1 0.0314445 0.0474896 0.719864
10 1 0.539074 0.546616 0.783803
ITEM: TIMESTEP
25
ITEM: NUMBER OF ATOMS
10
ITEM: BOX BOUNDS pp pp pp
0.0000000000000000e+00 2.4748750196253857e+00
0.0000000000000000e+00 2.4748750196253857e+00
0.0000000000000000e+00 2.7750011014717785e+01
ITEM: ATOMS id type xs ys zs
1 1 -0.00044428 0.0162144 0.217768
2 1 0.478821 0.510872 0.27985
3 1 -0.0112741 0.0483025 0.343018
4 1 0.508579 0.477334 0.405874
5 1 0.0151156 -0.0396149 0.468784
6 1 0.514949 0.457737 0.530953
7 1 -0.0332752 -0.0402445 0.59431
8 1 0.455048 0.472309 0.655574
9 1 0.0318044 0.048439 0.71992
10 1 0.540676 0.548652 0.783949
ITEM: TIMESTEP
26
ITEM: NUMBER OF ATOMS
10
ITEM: BOX BOUNDS pp pp pp
0.0000000000000000e+00 2.4748750196253857e+00
0.0000000000000000e+00 2.4748750196253857e+00
0.0000000000000000e+00 2.7750011014717785e+01
ITEM: ATOMS id type xs ys zs
1 1 -0.000834765 0.016758 0.21758
2 1 0.478474 0.512037 0.279903
3 1 -0.0115689 0.0485615 0.342979
4 1 0.508697 0.477304 0.405969
5 1 0.0156576 -0.0410465 0.468729
6 1 0.514929 0.45605 0.531016
7 1 -0.0342691 -0.0417191 0.594165
8 1 0.454572 0.472074 0.655566
9 1 0.0320736 0.0492883 0.719987
10 1 0.54227 0.550693 0.784106
ITEM: TIMESTEP
27
ITEM: NUMBER OF ATOMS
10
ITEM: BOX BOUNDS pp pp pp
0.0000000000000000e+00 2.4748750196253857e+00
0.0000000000000000e+00 2.4748750196253857e+00
0.0000000000000000e+00 2.7750011014717785e+01
ITEM: ATOMS id type xs ys zs
1 1 -0.00125787 0.0172988 0.217375
2 1 0.478171 0.513262 0.279953
3 1 -0.011848 0.0486675 0.342937
4 1 0.508795 0.477343 0.406067
5 1 0.0161852 -0.0424554 0.468673
6 1 0.514841 0.454366 0.531081
7 1 -0.0352138 -0.0431748 0.594015
8 1 0.454219 0.471917 0.655562
9 1 0.0322531 0.0500382 0.720064
10 1 0.543856 0.552738 0.784273
ITEM: TIMESTEP
28
ITEM: NUMBER OF ATOMS
10
ITEM: BOX BOUNDS pp pp pp
0.0000000000000000e+00 2.4748750196253857e+00
0.0000000000000000e+00 2.4748750196253857e+00
0.0000000000000000e+00 2.7750011014717785e+01
ITEM: ATOMS id type xs ys zs
1 1 -0.00171289 0.017838 0.217155
2 1 0.477912 0.514548 0.279999
3 1 -0.0121114 0.0486221 0.342893
4 1 0.508874 0.477446 0.406167
5 1 0.0166968 -0.0438395 0.468617
6 1 0.514683 0.452683 0.531146
7 1 -0.0361054 -0.0446105 0.59386
8 1 0.453989 0.471836 0.655562
9 1 0.0323444 0.0506897 0.720152
10 1 0.545431 0.554786 0.784449
ITEM: TIMESTEP
29
ITEM: NUMBER OF ATOMS
10
ITEM: BOX BOUNDS pp pp pp
0.0000000000000000e+00 2.4748750196253857e+00
0.0000000000000000e+00 2.4748750196253857e+00
0.0000000000000000e+00 2.7750011014717785e+01
ITEM: ATOMS id type xs ys zs
1 1 -0.00219904 0.0183769 0.216921
2 1 0.477695 0.515891 0.28004
3 1 -0.0123593 0.0484277 0.342847
4 1 0.508934 0.47761 0.406267
5 1 0.0171904 -0.0451969 0.468562
6 1 0.514454 0.451005 0.531209
7 1 -0.0369399 -0.0460253 0.593702
8 1 0.453882 0.471831 0.655566
9 1 0.0323491 0.0512443 0.720251
10 1 0.546994 0.556836 0.784635
ITEM: TIMESTEP
30
ITEM: NUMBER OF ATOMS
10
ITEM: BOX BOUNDS pp pp pp
0.0000000000000000e+00 2.4748750196253857e+00
0.0000000000000000e+00 2.4748750196253857e+00
0.0000000000000000e+00 2.7750011014717785e+01
ITEM: ATOMS id type xs ys zs
1 1 -0.00271542 0.0189168 0.216672
2 1 0.477522 0.517289 0.280075
3 1 -0.0125915 0.0480869 0.3428
4 1 0.508977 0.477831 0.406365
5 1 0.0176641 -0.0465253 0.46851
6 1 0.51415 0.44933 0.53127
7 1 -0.0377133 -0.0474182 0.593543
8 1 0.453894 0.471899 0.655573
9 1 0.0322695 0.0517037 0.720361
10 1 0.548544 0.558886 0.78483
ITEM: TIMESTEP
31
ITEM: NUMBER OF ATOMS
10
ITEM: BOX BOUNDS pp pp pp
0.0000000000000000e+00 2.4748750196253857e+00
0.0000000000000000e+00 2.4748750196253857e+00
0.0000000000000000e+00 2.7750011014717785e+01
ITEM: ATOMS id type xs ys zs
1 1 -0.00326107 0.019459 0.21641
2 1 0.477389 0.51874 0.280103
3 1 -0.0128082 0.0476032 0.342754
4 1 0.509003 0.478104 0.406462
5 1 0.0181158 -0.0478226 0.46846
6 1 0.513771 0.447661 0.531328
7 1 -0.0384216 -0.0487883 0.593384
8 1 0.454026 0.472037 0.655583
9 1 0.0321083 0.0520701 0.720481
10 1 0.550079 0.560936 0.785035
ITEM: TIMESTEP
32
ITEM: NUMBER OF ATOMS
10
ITEM: BOX BOUNDS pp pp pp
0.0000000000000000e+00 2.4748750196253857e+00
0.0000000000000000e+00 2.4748750196253857e+00
0.0000000000000000e+00 2.7750011014717785e+01
ITEM: ATOMS id type xs ys zs
1 1 -0.00383499 0.0200048 0.216136
2 1 0.477296 0.520239 0.280124
3 1 -0.0130094 0.0469804 0.342707
4 1 0.509012 0.478425 0.406557
5 1 0.0185434 -0.0490863 0.468414
6 1 0.513314 0.445998 0.531381
7 1 -0.039061 -0.0501348 0.593225
8 1 0.454273 0.472245 0.655597
9 1 0.0318683 0.0523462 0.720612
10 1 0.551598 0.562983 0.785248
ITEM: TIMESTEP
33
ITEM: NUMBER OF ATOMS
10
ITEM: BOX BOUNDS pp pp pp
0.0000000000000000e+00 2.4748750196253857e+00
0.0000000000000000e+00 2.4748750196253857e+00
0.0000000000000000e+00 2.7750011014717785e+01
ITEM: ATOMS id type xs ys zs
1 1 -0.00443612 0.0205556 0.21585
2 1 0.477243 0.521784 0.280135
3 1 -0.0131952 0.0462228 0.342662
4 1 0.509007 0.478787 0.406647
5 1 0.0189446 -0.0503142 0.468373
6 1 0.512779 0.444343 0.531428
7 1 -0.0396276 -0.0514568 0.593069
8 1 0.454634 0.472518 0.655613
9 1 0.0315528 0.0525347 0.720753
10 1 0.553099 0.565026 0.78547
ITEM: TIMESTEP
34
ITEM: NUMBER OF ATOMS
10
ITEM: BOX BOUNDS pp pp pp
0.0000000000000000e+00 2.4748750196253857e+00
0.0000000000000000e+00 2.4748750196253857e+00
0.0000000000000000e+00 2.7750011014717785e+01
ITEM: ATOMS id type xs ys zs
1 1 -0.00506336 0.0211126 0.215554
2 1 0.477226 0.52337 0.280136
3 1 -0.0133655 0.0453353 0.342618
4 1 0.508987 0.479187 0.406732
5 1 0.0193173 -0.0515037 0.468337
6 1 0.512164 0.442696 0.531469
7 1 -0.0401178 -0.0527536 0.592916
8 1 0.455106 0.472854 0.655633
9 1 0.0311655 0.052639 0.720905
10 1 0.55458 0.567063 0.785701
ITEM: TIMESTEP
35
ITEM: NUMBER OF ATOMS
10
ITEM: BOX BOUNDS pp pp pp
0.0000000000000000e+00 2.4748750196253857e+00
0.0000000000000000e+00 2.4748750196253857e+00
0.0000000000000000e+00 2.7750011014717785e+01
ITEM: ATOMS id type xs ys zs
1 1 -0.0057156 0.021677 0.215247
2 1 0.477246 0.524993 0.280126
3 1 -0.0135204 0.0443231 0.342576
4 1 0.508955 0.479618 0.406811
5 1 0.0196589 -0.0526526 0.468307
6 1 0.511469 0.44106 0.531501
7 1 -0.0405284 -0.0540243 0.592769
8 1 0.455685 0.47325 0.655656
9 1 0.0307103 0.0526624 0.721066
10 1 0.55604 0.569092 0.78594
ITEM: TIMESTEP
36
ITEM: NUMBER OF ATOMS
10
ITEM: BOX BOUNDS pp pp pp
0.0000000000000000e+00 2.4748750196253857e+00
0.0000000000000000e+00 2.4748750196253857e+00
0.0000000000000000e+00 2.7750011014717785e+01
ITEM: ATOMS id type xs ys zs
1 1 -0.00639172 0.02225 0.214931
2 1 0.477301 0.526649 0.280104
3 1 -0.0136598 0.0431917 0.342537
4 1 0.50891 0.480076 0.406883
5 1 0.0199673 -0.0537584 0.468285
6 1 0.510693 0.439436 0.531525
7 1 -0.0408562 -0.0552685 0.592627
8 1 0.456368 0.473703 0.655683
9 1 0.0301913 0.0526088 0.721237
10 1 0.557477 0.571112 0.786188
ITEM: TIMESTEP
37
ITEM: NUMBER OF ATOMS
10
ITEM: BOX BOUNDS pp pp pp
0.0000000000000000e+00 2.4748750196253857e+00
0.0000000000000000e+00 2.4748750196253857e+00
0.0000000000000000e+00 2.7750011014717785e+01
ITEM: ATOMS id type xs ys zs
1 1 -0.00709059 0.0228329 0.214606
2 1 0.47739 0.528333 0.28007
3 1 -0.0137836 0.0419472 0.3425
4 1 0.508854 0.480554 0.406947
5 1 0.0202399 -0.0548189 0.46827
6 1 0.509837 0.437826 0.531539
7 1 -0.0410986 -0.0564853 0.592493
8 1 0.457151 0.474209 0.655713
9 1 0.029613 0.0524822 0.721417
10 1 0.558888 0.57312 0.786445
ITEM: TIMESTEP
38
ITEM: NUMBER OF ATOMS
10
ITEM: BOX BOUNDS pp pp pp
0.0000000000000000e+00 2.4748750196253857e+00
0.0000000000000000e+00 2.4748750196253857e+00
0.0000000000000000e+00 2.7750011014717785e+01
ITEM: ATOMS id type xs ys zs
1 1 -0.00781108 0.0234265 0.214274
2 1 0.47751 0.530039 0.280021
3 1 -0.0138918 0.0405958 0.342467
4 1 0.508787 0.481048 0.407002
5 1 0.0204744 -0.0558318 0.468262
6 1 0.508901 0.436231 0.531543
7 1 -0.0412532 -0.0576741 0.592368
8 1 0.458032 0.474764 0.655746
9 1 0.0289801 0.0522866 0.721606
10 1 0.560271 0.575114 0.786709
ITEM: TIMESTEP
39
ITEM: NUMBER OF ATOMS
10
ITEM: BOX BOUNDS pp pp pp
0.0000000000000000e+00 2.4748750196253857e+00
0.0000000000000000e+00 2.4748750196253857e+00
0.0000000000000000e+00 2.7750011014717785e+01
ITEM: ATOMS id type xs ys zs
1 1 -0.00855206 0.0240321 0.213934
2 1 0.477661 0.531763 0.279959
3 1 -0.0139842 0.039144 0.342437
4 1 0.50871 0.481552 0.407048
5 1 0.0206684 -0.0567951 0.468263
6 1 0.507886 0.434654 0.531537
7 1 -0.0413184 -0.0588344 0.592252
8 1 0.459005 0.475366 0.655784
9 1 0.0282971 0.0520266 0.721803
10 1 0.561626 0.577093 0.786982
ITEM: TIMESTEP
40
ITEM: NUMBER OF ATOMS
10
ITEM: BOX BOUNDS pp pp pp
0.0000000000000000e+00 2.4748750196253857e+00
0.0000000000000000e+00 2.4748750196253857e+00
0.0000000000000000e+00 2.7750011014717785e+01
ITEM: ATOMS id type xs ys zs
1 1 -0.00931241 0.0246506 0.213588
2 1 0.477841 0.533498 0.279882
3 1 -0.0140606 0.0375985 0.34241
4 1 0.508625 0.482061 0.407084
5 1 0.0208192 -0.0577069 0.468273
6 1 0.506795 0.433095 0.531519
7 1 -0.0412926 -0.0599655 0.592146
8 1 0.460067 0.476009 0.655826
9 1 0.0275692 0.0517065 0.722008
10 1 0.562949 0.579054 0.787264
ITEM: TIMESTEP
41
ITEM: NUMBER OF ATOMS
10
ITEM: BOX BOUNDS pp pp pp
0.0000000000000000e+00 2.4748750196253857e+00
0.0000000000000000e+00 2.4748750196253857e+00
0.0000000000000000e+00 2.7750011014717785e+01
ITEM: ATOMS id type xs ys zs
1 1 -0.010091 0.0252829 0.213236
2 1 0.478049 0.53524 0.279789
3 1 -0.0141207 0.0359663 0.342388
4 1 0.508531 0.48257 0.407109
5 1 0.0209246 -0.0585657 0.468291
6 1 0.505628 0.431559 0.531491
7 1 -0.0411751 -0.0610668 0.592051
8 1 0.461213 0.47669 0.655873
9 1 0.0268013 0.0513309 0.72222
10 1 0.564239 0.580994 0.787553
ITEM: TIMESTEP
42
ITEM: NUMBER OF ATOMS
10
ITEM: BOX BOUNDS pp pp pp
0.0000000000000000e+00 2.4748750196253857e+00
0.0000000000000000e+00 2.4748750196253857e+00
0.0000000000000000e+00 2.7750011014717785e+01
ITEM: ATOMS id type xs ys zs
1 1 -0.0108868 0.0259299 0.212878
2 1 0.478282 0.536983 0.27968
3 1 -0.0141642 0.0342544 0.342368
4 1 0.50843 0.483074 0.407123
5 1 0.020982 -0.0593699 0.468318
6 1 0.50439 0.430046 0.531451
7 1 -0.0409656 -0.0621377 0.591968
8 1 0.46244 0.477405 0.655925
9 1 0.0259986 0.0509045 0.722439
10 1 0.565494 0.582911 0.787851
ITEM: TIMESTEP
43
ITEM: NUMBER OF ATOMS
10
ITEM: BOX BOUNDS pp pp pp
0.0000000000000000e+00 2.4748750196253857e+00
0.0000000000000000e+00 2.4748750196253857e+00
0.0000000000000000e+00 2.7750011014717785e+01
ITEM: ATOMS id type xs ys zs
1 1 -0.0116985 0.0265923 0.212516
2 1 0.47854 0.53872 0.279555
3 1 -0.0141908 0.0324699 0.342352
4 1 0.50832 0.483569 0.407126
5 1 0.020989 -0.0601187 0.468353
6 1 0.503084 0.428559 0.531399
7 1 -0.0406642 -0.0631773 0.591897
8 1 0.463743 0.478151 0.655982
9 1 0.025166 0.050432 0.722663
10 1 0.566711 0.584803 0.788156
ITEM: TIMESTEP
44
ITEM: NUMBER OF ATOMS
10
ITEM: BOX BOUNDS pp pp pp
0.0000000000000000e+00 2.4748750196253857e+00
0.0000000000000000e+00 2.4748750196253857e+00
0.0000000000000000e+00 2.7750011014717785e+01
ITEM: ATOMS id type xs ys zs
1 1 -0.0125253 0.027271 0.21215
2 1 0.478821 0.540446 0.279414
3 1 -0.0142002 0.0306199 0.342339
4 1 0.508204 0.48405 0.407117
5 1 0.0209431 -0.0608111 0.468395
6 1 0.501714 0.427101 0.531337
7 1 -0.0402716 -0.0641852 0.591838
8 1 0.465118 0.478922 0.656045
9 1 0.0243087 0.0499182 0.722894
10 1 0.567888 0.586667 0.78847
ITEM: TIMESTEP
45
ITEM: NUMBER OF ATOMS
10
ITEM: BOX BOUNDS pp pp pp
0.0000000000000000e+00 2.4748750196253857e+00
0.0000000000000000e+00 2.4748750196253857e+00
0.0000000000000000e+00 2.7750011014717785e+01
ITEM: ATOMS id type xs ys zs
1 1 -0.0133659 0.0279665 0.21178
2 1 0.479123 0.542156 0.279256
3 1 -0.0141919 0.0287116 0.342329
4 1 0.50808 0.484513 0.407096
5 1 0.020842 -0.0614469 0.468446
6 1 0.500285 0.425674 0.531265
7 1 -0.0397891 -0.0651603 0.591793
8 1 0.466561 0.479716 0.656114
9 1 0.0234317 0.0493677 0.723129
10 1 0.569024 0.588502 0.788791
ITEM: TIMESTEP
46
ITEM: NUMBER OF ATOMS
10
ITEM: BOX BOUNDS pp pp pp
0.0000000000000000e+00 2.4748750196253857e+00
0.0000000000000000e+00 2.4748750196253857e+00
0.0000000000000000e+00 2.7750011014717785e+01
ITEM: ATOMS id type xs ys zs
1 1 -0.0142192 0.0286796 0.211408
2 1 0.479445 0.543844 0.27908
3 1 -0.0141656 0.026752 0.342322
4 1 0.507949 0.484955 0.407064
5 1 0.0206833 -0.0620259 0.468503
6 1 0.498803 0.424281 0.531183
7 1 -0.0392182 -0.066102 0.591761
8 1 0.468067 0.480528 0.65619
9 1 0.02254 0.0487852 0.723369
10 1 0.570116 0.590303 0.78912
ITEM: TIMESTEP
47
ITEM: NUMBER OF ATOMS
10
ITEM: BOX BOUNDS pp pp pp
0.0000000000000000e+00 2.4748750196253857e+00
0.0000000000000000e+00 2.4748750196253857e+00
0.0000000000000000e+00 2.7750011014717785e+01
ITEM: ATOMS id type xs ys zs
1 1 -0.0150842 0.0294108 0.211032
2 1 0.479785 0.545504 0.278888
3 1 -0.0141208 0.0247481 0.342317
4 1 0.507811 0.485371 0.407019
5 1 0.0204647 -0.0625485 0.468566
6 1 0.497273 0.422924 0.531092
7 1 -0.0385613 -0.0670094 0.591742
8 1 0.469632 0.481355 0.656274
9 1 0.0216387 0.0481753 0.723613
10 1 0.571162 0.59207 0.789457
ITEM: TIMESTEP
48
ITEM: NUMBER OF ATOMS
10
ITEM: BOX BOUNDS pp pp pp
0.0000000000000000e+00 2.4748750196253857e+00
0.0000000000000000e+00 2.4748750196253857e+00
0.0000000000000000e+00 2.7750011014717785e+01
ITEM: ATOMS id type xs ys zs
1 1 -0.0159597 0.0301606 0.210655
2 1 0.480142 0.547131 0.278678
3 1 -0.0140571 0.0227067 0.342313
4 1 0.507664 0.485759 0.406964
5 1 0.0201839 -0.0630155 0.468634
6 1 0.495702 0.421607 0.530993
7 1 -0.0378208 -0.0678814 0.591736
8 1 0.471252 0.482191 0.656365
9 1 0.0207325 0.0475426 0.723861
10 1 0.57216 0.593799 0.789801
ITEM: TIMESTEP
49
ITEM: NUMBER OF ATOMS
10
ITEM: BOX BOUNDS pp pp pp
0.0000000000000000e+00 2.4748750196253857e+00
0.0000000000000000e+00 2.4748750196253857e+00
0.0000000000000000e+00 2.7750011014717785e+01
ITEM: ATOMS id type xs ys zs
1 1 -0.0168447 0.0309295 0.210276
2 1 0.480514 0.548719 0.278452
3 1 -0.013974 0.0206346 0.342309
4 1 0.50751 0.486116 0.406897
5 1 0.0198386 -0.0634279 0.468707
6 1 0.494098 0.420332 0.530887
7 1 -0.0369999 -0.068717 0.591744
8 1 0.472923 0.483035 0.656464
9 1 0.0198263 0.0468915 0.724111
10 1 0.573109 0.595487 0.790153
ITEM: TIMESTEP
50
ITEM: NUMBER OF ATOMS
10
ITEM: BOX BOUNDS pp pp pp
0.0000000000000000e+00 2.4748750196253857e+00
0.0000000000000000e+00 2.4748750196253857e+00
0.0000000000000000e+00 2.7750011014717785e+01
ITEM: ATOMS id type xs ys zs
1 1 -0.017738 0.0317178 0.209896
2 1 0.480899 0.550265 0.278209
3 1 -0.0138712 0.0185382 0.342306
4 1 0.507347 0.486439 0.406821
5 1 0.0194266 -0.0637873 0.468782
6 1 0.492467 0.419101 0.530775
7 1 -0.0361018 -0.0695153 0.591764
8 1 0.474641 0.483881 0.656571
9 1 0.0189247 0.0462263 0.724364
10 1 0.574006 0.597133 0.790512
ITEM: TIMESTEP
51
ITEM: NUMBER OF ATOMS
10
ITEM: BOX BOUNDS pp pp pp
0.0000000000000000e+00 2.4748750196253857e+00
0.0000000000000000e+00 2.4748750196253857e+00
0.0000000000000000e+00 2.7750011014717785e+01
ITEM: ATOMS id type xs ys zs
1 1 -0.0186384 0.0325259 0.209515
2 1 0.481297 0.551764 0.27795
3 1 -0.0137482 0.0164238 0.342302
4 1 0.507174 0.486724 0.406734
5 1 0.0189459 -0.0640954 0.468859
6 1 0.490817 0.417919 0.53066
7 1 -0.0351303 -0.070275 0.591796
8 1 0.476401 0.484727 0.656688
9 1 0.0180323 0.0455511 0.724619
10 1 0.57485 0.598735 0.790878
ITEM: TIMESTEP
52
ITEM: NUMBER OF ATOMS
10
ITEM: BOX BOUNDS pp pp pp
0.0000000000000000e+00 2.4748750196253857e+00
0.0000000000000000e+00 2.4748750196253857e+00
0.0000000000000000e+00 2.7750011014717785e+01
ITEM: ATOMS id type xs ys zs
1 1 -0.019545 0.033354 0.209134
2 1 0.481704 0.553211 0.277674
3 1 -0.0136047 0.0142975 0.342297
4 1 0.506991 0.486971 0.406637
5 1 0.0183944 -0.0643546 0.468937
6 1 0.489156 0.416788 0.530541
7 1 -0.034089 -0.070995 0.591841
8 1 0.4782 0.485569 0.656813
9 1 0.0171534 0.04487 0.724876
10 1 0.57564 0.600289 0.791251
ITEM: TIMESTEP
53
ITEM: NUMBER OF ATOMS
10
ITEM: BOX BOUNDS pp pp pp
0.0000000000000000e+00 2.4748750196253857e+00
0.0000000000000000e+00 2.4748750196253857e+00
0.0000000000000000e+00 2.7750011014717785e+01
ITEM: ATOMS id type xs ys zs
1 1 -0.0204563 0.0342025 0.208752
2 1 0.482121 0.554603 0.277383
3 1 -0.0134403 0.0121652 0.342289
4 1 0.506797 0.487177 0.406533
5 1 0.0177702 -0.0645674 0.469013
6 1 0.487493 0.41571 0.530421