10
Atoms. Timestep: 0
1 0 0 6
1 1.23744 1.23744 7.75
1 0 0 9.5
1 1.23744 1.23744 11.25
1 0 0 13
1 1.23744 1.23744 14.75
1 0 0 16.5
1 1.23744 1.23744 18.25
1 0 0 20
1 1.23744 1.23744 21.75
10
Atoms. Timestep: 1
1 0.000454566 0.00179743 6.00771
1 1.23466 1.23748 7.75016
1 -0.00130404 0.00705 9.50203
1 1.23859 1.23394 11.249
1 0.00152482 -0.00407553 13.0019
1 1.23971 1.23325 14.7474
1 -0.00366709 -0.00411077 16.5024
1 1.23121 1.23347 18.2461
1 0.00454182 0.00629087 19.9974
1 1.24147 1.24209 21.746
10
Atoms. Timestep: 2
1 0.000904537 0.00359271 6.01504
1 1.2319 1.23753 7.75021
1 -0.0026066 0.0140756 9.50404
1 1.23973 1.23045 11.2479
1 0.00304954 -0.00814959 13.0038
1 1.24197 1.22906 14.7448
1 -0.00732908 -0.0082207 16.5048
1 1.22501 1.22953 18.2423
1 0.0090676 0.0125647 19.995
1 1.2455 1.24675 21.7423
10
Atoms. Timestep: 3
1 0.0013451 0.00538359 6.02197
1 1.22915 1.2376 7.75019
1 -0.00390609 0.0210523 9.50602
1 1.24087 1.227 11.2469
1 0.00457409 -0.0122208 13.0056
1 1.24421 1.22488 14.7422
1 -0.0109814 -0.0123289 16.5071
1 1.21885 1.2256 18.2384
1 0.0135615 0.0188049 19.9926
1 1.24952 1.25142 21.739
10
Atoms. Timestep: 4
1 0.00177124 0.00716776 6.02848
1 1.22642 1.23771 7.75013
1 -0.00520084 0.0279559 9.50796
1 1.242 1.22358 11.246
1 0.00609846 -0.0162877 13.0074
1 1.24642 1.22069 14.7397
1 -0.0146198 -0.0164346 16.5092
1 1.21274 1.22173 18.2347
1 0.0180082 0.0249948 19.9904
1 1.25355 1.25608 21.736
10
Atoms. Timestep: 5
1 0.00217779 0.00894285 6.03454
1 1.22371 1.23787 7.75005
1 -0.00648909 0.0347622 9.50984
1 1.24312 1.22021 11.2452
1 0.00762266 -0.020349 13.0091
1 1.2486 1.2165 14.7373
1 -0.0182406 -0.0205367 16.5113
1 1.20671 1.2179 18.231
1 0.0223924 0.0311184 19.9883
1 1.25759 1.26076 21.7334
10
Atoms. Timestep: 6
1 0.00255945 0.0107065 6.04014
1 1.22104 1.23809 7.74997
1 -0.00776899 0.0414474 9.51165
1 1.24422 1.21692 11.2444
1 0.0091467 -0.0244035 13.0107
1 1.25074 1.21232 14.7351
1 -0.0218407 -0.0246346 16.5131
1 1.20077 1.21415 18.2275
1 0.0266995 0.0371602 19.9863
1 1.26162 1.26544 21.7312
10
Atoms. Timestep: 7
1 0.00291087 0.0124563 6.04525
1 1.21842 1.23837 7.74992
1 -0.0090386 0.0479883 9.51336
1 1.24531 1.2137 11.2437
1 0.0106706 -0.02845 13.0122
1 1.25282 1.20813 14.733
1 -0.025417 -0.028727 16.5148
1 1.19494 1.21047 18.2241
1 0.0309154 0.0431048 19.9844
1 1.26565 1.27014 21.7293
10
Atoms. Timestep: 8
1 0.00322663 0.0141901 6.04985
1 1.21584 1.23873 7.74993
1 -0.0102959 0.054362 9.51498
1 1.24637 1.21058 11.2432
1 0.0121943 -0.0324872 13.0136
1 1.25485 1.20395 14.7311
1 -0.028967 -0.0328126 16.5162
1 1.18925 1.20689 18.2208
1 0.0350264 0.0489372 19.9826
1 1.26969 1.27485 21.7278
10
Atoms. Timestep: 9
1 0.00350139 0.0159057 6.05394
1 1.21332 1.23918 7.75001
1 -0.0115389 0.060546 9.51647
1 1.24741 1.20756 11.2429
1 0.0137177 -0.0365135 13.0147
1 1.25681 1.19977 14.7294
1 -0.032488 -0.0368901 16.5174
1 1.1837 1.20341 18.2176
1 0.0390191 0.0546432 19.9809
1 1.27372 1.27957 21.7267
10
Atoms. Timestep: 10
1 0.00372985 0.017601 6.05748
1 1.21086 1.23973 7.75018
1 -0.0127655 0.0665187 9.51784
1 1.24843 1.20467 11.2426
1 0.0152407 -0.0405275 13.0158
1 1.25871 1.19558 14.7279
1 -0.0359776 -0.0409581 16.5183
1 1.17832 1.20005 18.2147
1 0.0428808 0.060209 19.9794
1 1.27776 1.28431 21.7259
10
Atoms. Timestep: 11
1 0.0039069 0.0192742 6.06048
1 1.20848 1.24039 7.75045
1 -0.0139735 0.0722594 9.51906
1 1.24941 1.2019 11.2426
1 0.0167631 -0.0445277 13.0166
1 1.26052 1.1914 14.7267
1 -0.0394333 -0.045015 16.5189
1 1.17312 1.19681 18.2119
1 0.0465995 0.0656215 19.9779
1 1.2818 1.28907 21.7255
10
Atoms. Timestep: 12
1 0.0040276 0.0209239 6.06292
1 1.20616 1.24116 7.75084
1 -0.0151608 0.0777483 9.52012
1 1.25036 1.19928 11.2428
1 0.0182844 -0.0485125 13.0172
1 1.26225 1.18722 14.7257
1 -0.0428527 -0.0490594 16.5192
1 1.16811 1.19371 18.2093
1 0.0501637 0.0708685 19.9767
1 1.28584 1.29384 21.7254
10
Atoms. Timestep: 13
1 0.0040873 0.0225489 6.06479
1 1.20393 1.24206 7.75135
1 -0.0163254 0.0829665 9.52103
1 1.25127 1.19681 11.2431
1 0.019804 -0.0524803 13.0177
1 1.26389 1.18304 14.7249
1 -0.0462334 -0.0530895 16.5191
1 1.16331 1.19076 18.2069
1 0.0535628 0.0759384 19.9755
1 1.28988 1.29864 21.7257
10
Atoms. Timestep: 14
1 0.00408166 0.0241481 6.06608
1 1.20179 1.24309 7.75199
1 -0.0174653 0.0878967 9.52177
1 1.25214 1.19451 11.2437
1 0.0213214 -0.0564295 13.0179
1 1.26543 1.17885 14.7244
1 -0.0495726 -0.0571036 16.5187
1 1.15874 1.18795 18.2046
1 0.0567869 0.0808202 19.9746
1 1.29393 1.30346 21.7263
10
Atoms. Timestep: 15
1 0.00400672 0.0257209 6.06679
1 1.19974 1.24425 7.75276
1 -0.0185784 0.0925226 9.52233
1 1.25298 1.19237 11.2445
1 0.0228357 -0.0603585 13.018
1 1.26688 1.17467 14.7242
1 -0.0528673 -0.0610999 16.5179
1 1.1544 1.18531 18.2026
1 0.0598268 0.0855041 19.9738
1 1.29797 1.30829 21.7273
10
Atoms. Timestep: 16
1 0.00385892 0.0272673 6.06693
1 1.19779 1.24556 7.75367
1 -0.0196629 0.0968294 9.52272
1 1.25377 1.19041 11.2454
1 0.0243456 -0.0642653 13.0178
1 1.26821 1.17049 14.7242
1 -0.0561141 -0.0650765 16.5168
1 1.15032 1.18284 18.2008
1 0.0626743 0.0899808 19.9731
1 1.30201 1.31315 21.7286
10
Atoms. Timestep: 17
1 0.00363517 0.0287871 6.06649
1 1.19593 1.24702 7.7547
1 -0.0207171 0.100804 9.52292
1 1.25451 1.18864 11.2466
1 0.0258498 -0.068148 13.0174
1 1.26943 1.1663 14.7245
1 -0.0593092 -0.0690311 16.5153
1 1.14649 1.18054 18.1991
1 0.0653218 0.094242 19.9727
1 1.30605 1.31804 21.7303
10
Atoms. Timestep: 18
1 0.00333285 0.030281 6.06547
1 1.19418 1.24863 7.75584
1 -0.0217394 0.104434 9.52295
1 1.25521 1.18705 11.2481
1 0.0273464 -0.0720045 13.0169
1 1.27053 1.16212 14.725
1 -0.0624481 -0.0729618 16.5135
1 1.14293 1.17842 18.1977
1 0.0677629 0.0982803 19.9725
1 1.31008 1.32294 21.7322
10
Atoms. Timestep: 19
1 0.00294983 0.0317499 6.06388
1 1.19254 1.25039 7.75709
1 -0.0227283 0.107709 9.52281
1 1.25585 1.18566 11.2497
1 0.0288335 -0.0758324 13.0161
1 1.2715 1.15793 14.7257
1 -0.0655258 -0.0768661 16.5113
1 1.13966 1.17648 18.1964
1 0.0699917 0.102089 19.9725
1 1.31411 1.32787 21.7345
10
Atoms. Timestep: 20
1 0.00248448 0.0331949 6.06174
1 1.19101 1.25232 7.75844
1 -0.0236826 0.110621 9.5225
1 1.25645 1.18446 11.2515
1 0.0303088 -0.0796293 13.0152
1 1.27235 1.15375 14.7267
1 -0.0685367 -0.0807417 16.5088
1 1.13667 1.17473 18.1953
1 0.0720037 0.105663 19.9727
1 1.31814 1.33282 21.7371
10
Atoms. Timestep: 21
1 0.00193569 0.0346176 6.05905
1 1.18959 1.2544 7.75986
1 -0.0246011 0.113163 9.52203
1 1.257 1.18346 11.2535
1 0.0317697 -0.0833924 13.0142
1 1.27306 1.14957 14.7278
1 -0.0714746 -0.0845861 16.506
1 1.13397 1.17318 18.1944
1 0.0737948 0.108997 19.9732
1 1.32216 1.33779 21.74
10
Atoms. Timestep: 22
1 0.00130283 0.03602 6.05582
1 1.18828 1.25665 7.76133
1 -0.025483 0.115329 9.52141
1 1.25749 1.18265 11.2557
1 0.0332135 -0.0871187 13.013
1 1.27363 1.14538 14.7292
1 -0.0743327 -0.0883967 16.5029
1 1.13157 1.17182 18.1936
1 0.0753625 0.112088 19.974
1 1.32616 1.34278 21.7432
10
Atoms. Timestep: 23
1 0.000585743 0.0374043 6.05206
1 1.18708 1.25905 7.76284
1 -0.0263274 0.117116 9.52065
1 1.25794 1.18202 11.258
1 0.034637 -0.0908048 13.0116
1 1.27405 1.1412 14.7306
1 -0.0771037 -0.092171 16.4995
1 1.12947 1.17065 18.193
1 0.0767049 0.114933 19.975
1 1.33016 1.34778 21.7467
10
Atoms. Timestep: 24
1 -0.000215282 0.0387729 6.0478
1 1.186 1.26162 7.76436
1 -0.0271339 0.11852 9.51976
1 1.25833 1.18159 11.2604
1 0.0360368 -0.0944472 13.0102
1 1.27432 1.13702 14.7322
1 -0.0797796 -0.0959064 16.4959
1 1.12767 1.16968 18.1925
1 0.0778213 0.117531 19.9762
1 1.33414 1.35281 21.7505
10
Atoms. Timestep: 25
1 -0.00109954 0.0401285 6.04305
1 1.18502 1.26435 7.76585
1 -0.027902 0.119543 9.51877
1 1.25867 1.18134 11.263
1 0.0374093 -0.098042 13.0088
1 1.27443 1.13284 14.7339
1 -0.082352 -0.0996001 16.4921
1 1.12619 1.1689 18.1922
1 0.0787119 0.11988 19.9778
1 1.33811 1.35784 21.7546
10
Atoms. Timestep: 26
1 -0.00206594 0.041474 6.03783
1 1.18416 1.26723 7.76731
1 -0.0286315 0.120184 9.51768
1 1.25896 1.18127 11.2657
1 0.0387506 -0.101585 13.0072
1 1.27438 1.12867 14.7357
1 -0.0848118 -0.10325 16.4881
1 1.12501 1.16832 18.192
1 0.0793782 0.121982 19.9796
1 1.34205 1.3629 21.759
10
Atoms. Timestep: 27
1 -0.00311306 0.0428124 6.03216
1 1.18341 1.27026 7.76869
1 -0.0293223 0.120446 9.51651
1 1.2592 1.18136 11.2684
1 0.0400565 -0.105072 13.0057
1 1.27417 1.1245 14.7375
1 -0.0871498 -0.106852 16.4839
1 1.12413 1.16794 18.1919
1 0.0798225 0.123838 19.9818
1 1.34597 1.36796 21.7636
10
Atoms. Timestep: 28
1 -0.00423919 0.0441469 6.02606
1 1.18277 1.27344 7.76996
1 -0.0299743 0.120334 9.51528
1 1.2594 1.18162 11.2711
1 0.0413226 -0.108497 13.0041
1 1.27378 1.12033 14.7393
1 -0.0893563 -0.110405 16.4796
1 1.12357 1.16774 18.1919
1 0.0800483 0.125451 19.9842
1 1.34987 1.37303 21.7685
10
Atoms. Timestep: 29
1 -0.00544234 0.0454806 6.01955
1 1.18224 1.27677 7.77111
1 -0.0305876 0.119852 9.51401
1 1.25955 1.18203 11.2739
1 0.0425442 -0.111857 13.0026
1 1.27321 1.11618 14.7411
1 -0.0914216 -0.113907 16.4752
1 1.1233 1.16772 18.192
1 0.08006 0.126823 19.987
1 1.35374 1.3781 21.7736
10
Atoms. Timestep: 30
1 -0.00672031 0.0468167 6.01266
1 1.18181 1.28023 7.77208
1 -0.0311624 0.119009 9.51272
1 1.25965 1.18257 11.2766
1 0.0437165 -0.115144 13.0011
1 1.27246 1.11204 14.7428
1 -0.0933357 -0.117354 16.4708
1 1.12333 1.16789 18.1922
1 0.0798631 0.12796 19.99
1 1.35758 1.38317 21.7791
10
Atoms. Timestep: 31
1 -0.00807075 0.0481586 6.00539
1 1.18148 1.28382 7.77287
1 -0.0316987 0.117812 9.51142
1 1.25972 1.18325 11.2793
1 0.0448345 -0.118355 12.9998
1 1.27152 1.1079 14.7444
1 -0.0950887 -0.120745 16.4664
1 1.12366 1.16823 18.1924
1 0.079464 0.128867 19.9934
1 1.36138 1.38825 21.7847
10
Atoms. Timestep: 32
1 -0.00949113 0.0495095 5.99778
1 1.18125 1.28753 7.77343
1 -0.0321967 0.116271 9.51013
1 1.25974 1.18404 11.282
1 0.0458926 -0.121482 12.9985
1 1.27039 1.10379 14.7458
1 -0.096671 -0.124077 16.462
1 1.12427 1.16875 18.1928
1 0.0788699 0.12955 19.997
1 1.36514 1.39331 21.7906
10
Atoms. Timestep: 33
1 -0.0109788 0.0508725 5.98985
1 1.18112 1.29135 7.77374
1 -0.0326564 0.114396 9.50887
1 1.25973 1.18494 11.2845
1 0.0468856 -0.124521 12.9973
1 1.26906 1.09969 14.7471
1 -0.0980733 -0.127349 16.4577
1 1.12516 1.16942 18.1933
1 0.0780892 0.130017 20.0009
1 1.36885 1.39837 21.7968
10
Atoms. Timestep: 34
1 -0.0125312 0.052251 5.98162
1 1.18108 1.29528 7.77377
1 -0.0330779 0.112199 9.50765
1 1.25968 1.18593 11.2868
1 0.0478078 -0.127465 12.9964
1 1.26754 1.09562 14.7483
1 -0.0992866 -0.130558 16.4534
1 1.12633 1.17026 18.1938
1 0.0771307 0.130275 20.0051
1 1.37252 1.40341 21.8032
10
Atoms. Timestep: 35
1 -0.0141454 0.0536478 5.97311
1 1.18113 1.29929 7.7735
1 -0.0334613 0.109694 9.50649
1 1.2596 1.187 11.289
1 0.0486534 -0.130309 12.9955
1 1.26582 1.09157 14.7492
1 -0.100303 -0.133703 16.4493
1 1.12776 1.17124 18.1945
1 0.0760041 0.130333 20.0096
1 1.37613 1.40843 21.8098
10
Atoms. Timestep: 36
1 -0.0158187 0.055066 5.96434
1 1.18126 1.30339 7.77289
1 -0.0338063 0.106894 9.5054
1 1.25949 1.18813 11.291
1 0.0494165 -0.133045 12.9949
1 1.2639 1.08755 14.7498
1 -0.101114 -0.136783 16.4454
1 1.12945 1.17236 18.1952
1 0.0747197 0.1302 20.0143
1 1.37968 1.41343 21.8167
10
Atoms. Timestep: 37
1 -0.0175483 0.0565085 5.95533
1 1.18148 1.30756 7.77193
1 -0.0341128 0.103814 9.50438
1 1.25935 1.18931 11.2928
1 0.0500913 -0.13567 12.9945
1 1.26178 1.08356 14.7502
1 -0.101714 -0.139794 16.4417
1 1.13139 1.17361 18.196
1 0.0732886 0.129887 20.0193
1 1.38318 1.4184 21.8238
10
Atoms. Timestep: 38
1 -0.0193314 0.0579778 5.9461
1 1.18178 1.31178 7.7706
1 -0.0343806 0.10047 9.50346
1 1.25918 1.19053 11.2943
1 0.0506717 -0.138177 12.9943
1 1.25947 1.07962 14.7503
1 -0.102097 -0.142736 16.4382
1 1.13357 1.17498 18.197
1 0.071722 0.129403 20.0246
1 1.3866 1.42334 21.8312
10
Atoms. Timestep: 39
1 -0.0211653 0.0594766 5.93667
1 1.18215 1.31605 7.76887
1 -0.0346092 0.0968765 9.50263
1 1.25899 1.19178 11.2956
1 0.0511516 -0.140561 12.9943
1 1.25696 1.07571 14.7502
1 -0.102258 -0.145608 16.435
1 1.13598 1.17647 18.198
1 0.0700319 0.128759 20.03
1 1.38995 1.42823 21.8388
10
Atoms. Timestep: 40
1 -0.023047 0.0610072 5.92707
1 1.1826 1.32034 7.76672
1 -0.0347982 0.0930517 9.50189
1 1.25878 1.19304 11.2966
1 0.051525 -0.142817 12.9946
1 1.25425 1.07186 14.7497
1 -0.102194 -0.148407 16.432
1 1.13861 1.17806 18.1992
1 0.0682304 0.127967 20.0357
1 1.39323 1.43309 21.8466
10
Atoms. Timestep: 41
1 -0.024974 0.0625721 5.91729
1 1.18311 1.32465 7.76415
1 -0.0349469 0.0890122 9.50126
1 1.25855 1.1943 11.2973
1 0.0517857 -0.144943 12.9951
1 1.25137 1.06805 14.7489
1 -0.101903 -0.151133 16.4294
1 1.14145 1.17975 18.2005
1 0.0663299 0.127038 20.0416
1 1.39642 1.43789 21.8546
10
Atoms. Timestep: 42
1 -0.0269434 0.0641732 5.90738
1 1.18369 1.32896 7.76113
1 -0.0350546 0.0847754 9.50072
1 1.2583 1.19555 11.2977
1 0.0519278 -0.146933 12.9958
1 1.2483 1.06431 14.7478
1 -0.101385 -0.153783 16.4271
1 1.14448 1.18152 18.2019
1 0.0643432 0.125982 20.0477
1 1.39953 1.44263 21.8629
10
Atoms. Timestep: 43
1 -0.0289524 0.0658127 5.89733
1 1.18433 1.33326 7.75767
1 -0.0351205 0.0803589 9.50028
1 1.25803 1.19677 11.2977
1 0.0519451 -0.148786 12.9968
1 1.24507 1.06063 14.7463
1 -0.100639 -0.156356 16.4251
1 1.14771 1.18336 18.2035
1 0.0622827 0.124813 20.0539
1 1.40254 1.44731 21.8713
10
Atoms. Timestep: 44
1 -0.0309985 0.0674923 5.88717
1 1.18502 1.33754 7.75374
1 -0.0351437 0.0757805 9.49992
1 1.25774 1.19796 11.2975
1 0.0518316 -0.1505 12.998
1 1.24168 1.05702 14.7446
1 -0.0996673 -0.15885 16.4235
1 1.15111 1.18527 18.2053
1 0.0601609 0.123541 20.0603
1 1.40545 1.45193 21.88
10
Atoms. Timestep: 45
1 -0.0330788 0.0692137 5.87691
1 1.18577 1.34177 7.74934
1 -0.0351232 0.0710576 9.49965
1 1.25743 1.19911 11.2969
1 0.0515814 -0.152073 12.9994
1 1.23814 1.05349 14.7426
1 -0.098473 -0.161264 16.4223
1 1.15468 1.18724 18.2072
1 0.0579904 0.122179 20.0668
1 1.40826 1.45647 21.889
10
Atoms. Timestep: 46
1 -0.0351907 0.0709785 5.86657
1 1.18657 1.34595 7.74448
1 -0.0350581 0.0662078 9.49944
1 1.25711 1.2002 11.296
1 0.0511887 -0.153506 13.001
1 1.23447 1.05004 14.7403
1 -0.0970602 -0.163594 16.4214
1 1.15841 1.18925 18.2093
1 0.0557837 0.120737 20.0735
1 1.41096 1.46093 21.8981
10
Atoms. Timestep: 47
1 -0.0373315 0.0727881 5.85615
1 1.18741 1.35005 7.73914
1 -0.0349472 0.0612483 9.49929
1 1.25677 1.20123 11.2948
1 0.0506476 -0.1548 13.0027
1 1.23069 1.04669 14.7378
1 -0.0954344 -0.16584 16.4208
1 1.16228 1.19129 18.2116
1 0.053553 0.119228 20.0803
1 1.41355 1.4653 21.9074
10
Atoms. Timestep: 48
1 -0.0394983 0.0746437 5.84568
1 1.18829 1.35408 7.73333
1 -0.0347895 0.0561962 9.49918
1 1.25641 1.20219 11.2933
1 0.0499526 -0.155955 13.0046
1 1.2268 1.04342 14.7351
1 -0.0936019 -0.167998 16.4207
1 1.16629 1.19336 18.2141
1 0.0513103 0.117662 20.0871
1 1.41602 1.46958 21.917
10
Atoms. Timestep: 49
1 -0.0416885 0.0765465 5.83517
1 1.18921 1.35801 7.72705
1 -0.034584 0.0510679 9.49909
1 1.25602 1.20308 11.2914
1 0.049098 -0.156976 13.0066
1 1.22283 1.04027 14.7321
1 -0.0915702 -0.170066 16.4209
1 1.17043 1.19545 18.2169
1 0.0490676 0.116051 20.0941
1 1.41837 1.47376 21.9267
10
Atoms. Timestep: 50
1 -0.0438993 0.0784975 5.82462
1 1.19017 1.36184 7.72031
1 -0.0343295 0.0458796 9.499
1 1.25562 1.20387 11.2893
1 0.0480784 -0.157866 13.0087
1 1.21879 1.03722 14.729
1 -0.0893475 -0.172042 16.4214
1 1.17468 1.19755 18.2199
1 0.0468363 0.114404 20.1011
1 1.42059 1.47783 21.9367
10
Atoms. Timestep: 51
1 -0.0461278 0.0804974 5.81404
1 1.19115 1.36555 7.71311
1 -0.0340251 0.0406468 9.49889
1 1.25519 1.20458 11.2869
1 0.0468887 -0.158628 13.0108
1 1.21471 1.0343 14.7258
1 -0.086943 -0.173922 16.4224
1 1.17903 1.19964 18.2231
1 0.0446277 0.112733 20.1082
1 1.42268 1.48179 21.9469
10
Atoms. Timestep: 52
1 -0.0483713 0.0825471 5.80346
1 1.19216 1.36913 7.70546
1 -0.0336699 0.0353846 9.49873
1 1.25474 1.20519 11.2842
1 0.0455238 -0.15927 13.013
1 1.2106 1.0315 14.7225
1 -0.0843661 -0.175704 16.4236
1 1.18348 1.20172 18.2266
1 0.0424526 0.111048 20.1153
1 1.42464 1.48564 21.9572
10
Atoms. Timestep: 53
1 -0.0506269 0.0846469 5.79287
1 1.19319 1.37257 7.69737
1 -0.0332629 0.0301073 9.49851
1 1.25426 1.2057 11.2813
1 0.0439789 -0.159796 13.0151
1 1.20648 1.02883 14.7192
1 -0.081627 -0.177384 16.4252
1 1.18802 1.20379 18.2303
1 0.0403213 0.109356 20.1225
1 1.42645 1.48936 21.9678
10
Atoms. Timestep: 54
1 -0.0528915 0.0867975 5.78229
1 1.19424 1.37587 7.68886
1 -0.0328037 0.0248289 9.4982
1 1.25375 1.20611 11.2782
1 0.0422497 -0.160214 13.0172
1 1.20238 1.02631 14.7159
1 -0.078736 -0.178961 16.427
1 1.19264 1.20582 18.2344
1 0.0382438 0.107669 20.1297
1 1.42812 1.49296 21.9785
10
Atoms. Timestep: 55
1 -0.0551623 0.088999 5.77173
1 1.1953 1.37902 7.67994
1 -0.0322915 0.0195624 9.49776
1 1.25321 1.2064 11.2748
1 0.0403322 -0.160532 13.0191
1 1.19831 1.02393 14.7126
1 -0.0757037 -0.180429 16.4292
1 1.19732 1.20783 18.2387
1 0.0362296 0.105993 20.1369
1 1.42964 1.49642 21.9894
10
Atoms. Timestep: 56
1 -0.0574363 0.0912517 5.76118
1 1.19638 1.382 7.67063
1 -0.0317262 0.0143204 9.49717
1 1.25263 1.20657 11.2713
1 0.038223 -0.160757 13.0209
1 1.19429 1.02171 14.7094
1 -0.072541 -0.181788 16.4317
1 1.20206 1.20979 18.2433
1 0.0342876 0.104338 20.1441
1 1.43102 1.49975 22.0004
10
Atoms. Timestep: 57
1 -0.0597103 0.0935554 5.75067
1 1.19746 1.38482 7.66094
1 -0.0311077 0.00911486 9.49641
1 1.25202 1.20663 11.2677
1 0.0359191 -0.160897 13.0224
1 1.19035 1.01965 14.7064
1 -0.0692587 -0.183033 16.4344
1 1.20685 1.2117 18.2482
1 0.0324263 0.102709 20.1513
1 1.43224 1.50293 22.0116
10
Atoms. Timestep: 58
1 -0.0619814 0.0959101 5.74019
1 1.19855 1.38747 7.65089
1 -0.0304362 0.00395703 9.49544
1 1.25136 1.20657 11.2639
1 0.0334184 -0.160961 13.0238
1 1.18649 1.01776 14.7035
1 -0.0658676 -0.184162 16.4374
1 1.21169 1.21356 18.2534
1 0.0306536 0.101115 20.1585
1 1.43331 1.50597 22.023
10
Atoms. Timestep: 59
1 -0.0642462 0.0983155 5.72975
1 1.19963 1.38994 7.6405
1 -0.0297121 -0.00114244 9.49424
1 1.25067 1.20638 11.26
1 0.0307197 -0.160956 13.0249
1 1.18275 1.01605 14.7009
1 -0.0623784 -0.185172 16.4406
1 1.21655 1.21536 18.2589
1 0.0289769 0.0995608 20.1657
1 1.43422 1.50886 22.0345
10
Atoms. Timestep: 60
1 -0.0665017 0.100771 5.71935
1 1.20071 1.39223 7.6298
1 -0.0289361 -0.00617354 9.49278
1 1.24993 1.20606 11.2561
1 0.0278225 -0.160892 13.0257
1 1.17913 1.01451 14.6985
1 -0.0588017 -0.186062 16.4441
1 1.22144 1.2171 18.2647
1 0.027403 0.0980523 20.1729
1 1.43498 1.51159 22.0461
10
Atoms. Timestep: 61
1 -0.0687445 0.103276 5.70901
1 1.20179 1.39434 7.61879
1 -0.0281093 -0.0111268 9.49103
1 1.24915 1.2056 11.2521
1 0.0247275 -0.160775 13.0261
1 1.17566 1.01317 14.6964
1 -0.0551478 -0.186829 16.4477
1 1.22635 1.21876 18.2709
1 0.0259383 0.0965945 20.1801
1 1.43558 1.51417 22.0579
10
Atoms. Timestep: 62
1 -0.0709715 0.105831 5.69872
1 1.20285 1.39627 7.60752
1 -0.027233 -0.0159936 9.48897
1 1.24832 1.20501 11.248
1 0.0214365 -0.160613 13.0262
1 1.17233 1.01201 14.6947
1 -0.0514269 -0.187471 16.4516
1 1.23126 1.22035 18.2773
1 0.0245885 0.0951917 20.1873
1 1.43602 1.5166 22.0698
10
Atoms. Timestep: 63
1 -0.0731792 0.108433 5.68848
1 1.2039 1.39801 7.59598
1 -0.0263089 -0.0207655 9.48657
1 1.24744 1.20428 11.244
1 0.0179527 -0.160413 13.0259
1 1.16918 1.01106 14.6933
1 -0.0476489 -0.187986 16.4556
1 1.23618 1.22185 18.284
1 0.0233589 0.0938479 20.1945
1 1.43631 1.51886 22.0817
10
Atoms. Timestep: 64
1 -0.0753643 0.111082 5.6783
1 1.20493 1.39957 7.58422
1 -0.0253391 -0.025435 9.48381
1 1.24651 1.20342 11.2399
1 0.0142803 -0.16018 13.0251
1 1.16621 1.0103 14.6923
1 -0.0438234 -0.188375 16.4598
1 1.24109 1.22328 18.2911
1 0.0222543 0.0925661 20.2017
1 1.43644 1.52097 22.0938
10
Atoms. Timestep: 65
1 -0.0775235 0.113777 5.66818
1 1.20595 1.40093 7.57225
1 -0.0243259 -0.029995 9.48066
1 1.24553 1.2024 11.2359
1 0.0104253 -0.159921 13.024
1 1.16342 1.00974 14.6917
1 -0.0399599 -0.188634 16.4642
1 1.24598 1.22463 18.2984
1 0.0212788 0.091349 20.2089
1 1.43641 1.52291 22.1059
10
Atoms. Timestep: 66
1 -0.0796532 0.116516 5.65812
1 1.20693 1.40212 7.5601
1 -0.023272 -0.0344391 9.47712
1 1.2445 1.20124 11.2319
1 0.0063949 -0.15964 13.0225
1 1.16083 1.00938 14.6915
1 -0.0360673 -0.188765 16.4687
1 1.25086 1.22588 18.306
1 0.0204364 0.0901989 20.2162
1 1.43623 1.52469 22.118
10
Atoms. Timestep: 67
1 -0.08175 0.119297 5.64812
1 1.20789 1.40311 7.54779
1 -0.0221804 -0.0387614 9.47316
1 1.24342 1.19993 11.2279
1 0.00219761 -0.159339 13.0205
1 1.15844 1.00923 14.6917
1 -0.0321547 -0.188767 16.4734
1 1.25571 1.22705 18.3139
1 0.0197304 0.0891174 20.2234
1 1.43589 1.52631 22.1303
10
Atoms. Timestep: 68
1 -0.0838104 0.122119 5.63817
1 1.20882 1.40393 7.53533
1 -0.0210544 -0.0429566 9.46877
1 1.24228 1.19848 11.2239
1 -0.00215679 -0.159023 13.018
1 1.15625 1.00928 14.6924
1 -0.0282303 -0.188639 16.4782
1 1.26052 1.22813 18.322
1 0.0191636 0.0881056 20.2306
1 1.43541 1.52777 22.1425
10
Atoms. Timestep: 69
1 -0.0858309 0.12498 5.62829
1 1.20971 1.40456 7.52277
1 -0.0198975 -0.0470199 9.46394
1 1.24109 1.19687 11.2201
1 -0.00665741 -0.158693 13.0152
1 1.15428 1.00953 14.6935
1 -0.0243023 -0.188382 16.4832
1 1.26529 1.22912 18.3305
1 0.0187387 0.0871642 20.2379
1 1.43477 1.52906 22.1548
10
Atoms. Timestep: 70
1 -0.0878079 0.127876 5.61847
1 1.21057 1.40501 7.51011
1 -0.0187137 -0.0509472 9.45866
1 1.23984 1.19511 11.2162
1 -0.0112922 -0.158351 13.0119
1 1.15251 1.00998 14.695
1 -0.0203782 -0.187998 16.4883
1 1.27001 1.23002 18.3391
1 0.0184576 0.0862936 20.2452
1 1.43399 1.53019 22.167
10
Atoms. Timestep: 71
1 -0.0897381 0.130807 5.6087
1 1.21139 1.40528 7.49738
1 -0.0175071 -0.0547352 9.45291
1 1.23854 1.1932 11.2124
1 -0.0160479 -0.157995 13.0083
1 1.15095 1.01062 14.6969
1 -0.0164655 -0.187486 16.4936
1 1.27468 1.23083 18.348
1 0.0183223 0.0854936 20.2525
1 1.43307 1.53117 22.1793
10
Atoms. Timestep: 72
1 -0.0916177 0.133768 5.59898
1 1.21216 1.40538 7.4846
1 -0.0162819 -0.0583807 9.44671
1 1.23719 1.19114 11.2087
1 -0.0209104 -0.157626 13.0043
1 1.14959 1.01145 14.6992
1 -0.0125715 -0.186849 16.4989
1 1.2793 1.23155 18.3571
1 0.018334 0.0847638 20.26
1 1.432 1.53198 22.1915
10
Atoms. Timestep: 73
1 -0.0934433 0.136757 5.58932
1 1.21289 1.40531 7.4718
1 -0.0150426 -0.0618814 9.44003
1 1.23578 1.18894 11.205
1 -0.0258649 -0.157242 13
1 1.14844 1.01247 14.7019
1 -0.0087032 -0.186087 16.5044
1 1.28384 1.23219 18.3665
1 0.0184939 0.0841034 20.2674
1 1.4308 1.53263 22.2037
10
Atoms. Timestep: 74
1 -0.0952115 0.13977 5.57971
1 1.21356 1.40507 7.45899
1 -0.0137939 -0.0652355 9.4329
1 1.23432 1.18658 11.2014
1 -0.0308957 -0.156842 12.9953
1 1.14749 1.01367 14.705
1 -0.00486738 -0.185204 16.5101
1 1.28832 1.23274 18.376
1 0.0188027 0.0835112 20.275
1 1.42947 1.53313 22.2158
10
Atoms. Timestep: 75
1 -0.0969189 0.142804 5.57015
1 1.21419 1.40466 7.4462
1 -0.0125404 -0.0684415 9.42531
1 1.2328 1.18408 11.1977
1 -0.0359869 -0.156424 12.9904
1 1.14673 1.01505 14.7083
1 -0.00107055 -0.184201 16.5158
1 1.29272 1.23321 18.3856
1 0.0192608 0.0829859 20.2826
1 1.428 1.53347 22.2279
10
Atoms. Timestep: 76
1 -0.0985619 0.145855 5.56063
1 1.21476 1.4041 7.43345
1 -0.011287 -0.0714984 9.41727
1 1.23123 1.18143 11.1941
1 -0.0411221 -0.155986 12.9852
1 1.14617 1.01659 14.712
1 0.002681 -0.183079 16.5218
1 1.29704 1.23359 18.3954
1 0.0198684 0.0825258 20.2903
1 1.42641 1.53366 22.2399
10
Atoms. Timestep: 77
1 -0.100137 0.148918 5.55116
1 1.21527 1.40338 7.42075
1 -0.0100384 -0.0744058 9.40878
1 1.22961 1.17865 11.1904
1 -0.0462849 -0.155526 12.9799
1 1.14579 1.01829 14.716
1 0.00638125 -0.181843 16.5278
1 1.30127 1.2339 18.4054
1 0.0206252 0.0821291 20.2981
1 1.4247 1.5337 22.2517
10
Atoms. Timestep: 78
1 -0.101642 0.15199 5.54172
1 1.21572 1.40251 7.40812
1 -0.00879936 -0.0771634 9.39987
1 1.22794 1.17573 11.1868
1 -0.0514588 -0.15504 12.9744
1 1.14559 1.02014 14.7202
1 0.0100245 -0.180494 16.534
1 1.30541 1.23413 18.4155
1 0.0215309 0.0817937 20.3061
1 1.42288 1.53359 22.2635
10
Atoms. Timestep: 79
1 -0.103073 0.155065 5.53232
1 1.21611 1.40149 7.39558
1 -0.00757474 -0.0797716 9.39054
1 1.22621 1.17268 11.1831
1 -0.0566275 -0.154528 12.9687
1 1.14556 1.02214 14.7246
1 0.0136053 -0.179035 16.5403
1 1.30946 1.23429 18.4256
1 0.0225845 0.0815177 20.3141
1 1.42093 1.53334 22.2752
10
Atoms. Timestep: 80
1 -0.104427 0.15814 5.52295
1 1.21643 1.40033 7.38315
1 -0.00636917 -0.0822309 9.3808
1 1.22443 1.16951 11.1793
1 -0.0617752 -0.153986 12.963
1 1.1457 1.02427 14.7291
1 0.0171185 -0.177469 16.5468
1 1.31341 1.23438 18.4359
1 0.0237852 0.0812986 20.3223
1 1.41888 1.53294 22.2867
10
Atoms. Timestep: 81
1 -0.105702 0.161207 5.51361
1 1.21669 1.39904 7.37084
1 -0.00518724 -0.0845422 9.37069
1 1.22259 1.16623 11.1755
1 -0.0668862 -0.153415 12.9573
1 1.14601 1.02653 14.7338
1 0.0205594 -0.1758 16.5534
1 1.31725 1.23441 18.4462
1 0.0251315 0.0811342 20.3306
1 1.41673 1.5324 22.2981
10
Atoms. Timestep: 82
1 -0.106894 0.164263 5.5043
1 1.21688 1.39761 7.35867
1 -0.00403339 -0.0867066 9.3602
1 1.2207 1.16283 11.1715
1 -0.0719456 -0.152811 12.9516
1 1.14646 1.02892 14.7387
1 0.0239237 -0.17403 16.5602
1 1.32099 1.23437 18.4565
1 0.0266217 0.081022 20.3391
1 1.41448 1.53172 22.3093
10
Atoms. Timestep: 83
1 -0.108001 0.167302 5.49502
1 1.217 1.39606 7.34665
1 -0.00291194 -0.0887255 9.34938
1 1.21876 1.15933 11.1675
1 -0.0769391 -0.152176 12.9459
1 1.14707 1.03142 14.7436
1 0.0272072 -0.172162 16.5671
1 1.32462 1.23427 18.4669
1 0.0282539 0.0809596 20.3477
1 1.41213 1.53091 22.3203
10
Atoms. Timestep: 84
1 -0.109022 0.170318 5.48575
1 1.21705 1.39439 7.3348
1 -0.00182702 -0.0906003 9.33823
1 1.21676 1.15574 11.1633
1 -0.0818528 -0.151508 12.9403
1 1.14783 1.03402 14.7485
1 0.0304066 -0.170201 16.5742
1 1.32813 1.23412 18.4773
1 0.0300259 0.0809445 20.3565
1 1.40969 1.52996 22.3312
10
Atoms. Timestep: 85
1 -0.109954 0.173305 5.4765
1 1.21702 1.39261 7.32312
1 -0.00078261 -0.0923328 9.32679
1 1.21471 1.15206 11.159
1 -0.086674 -0.150808 12.9348
1 1.14872 1.03673 14.7535
1 0.0335185 -0.168148 16.5814
1 1.33153 1.23392 18.4877
1 0.0319351 0.0809742 20.3654
1 1.40717 1.52888 22.3419
10
Atoms. Timestep: 86
1 -0.110795 0.176257 5.46727
1 1.21692 1.39072 7.31162
1 0.0002175 -0.0939248 9.31506
1 1.2126 1.14831 11.1545
1 -0.0913907 -0.150077 12.9295
1 1.14974 1.03952 14.7585
1 0.0365403 -0.166007 16.5888
1 1.33481 1.23367 18.498
1 0.0339785 0.0810464 20.3745
1 1.40456 1.52767 22.3524
10
Atoms. Timestep: 87
1 -0.111544 0.179169 5.45805
1 1.21675 1.38873 7.30032
1 0.00116971 -0.0953782 9.30309
1 1.21044 1.14448 11.1498
1 -0.0959917 -0.149317 12.9244
1 1.15088 1.0424 14.7634
1 0.0394698 -0.163782 16.5963
1 1.33797 1.23338 18.5083
1 0.0361531 0.0811585 20.3838
1 1.40188 1.52634 22.3626
10
Atoms. Timestep: 88
1 -0.1122 0.182034 5.44884
1 1.2165 1.38664 7.28923
1 0.00207062 -0.096695 9.29089
1 1.20822 1.1406 11.1449
1 -0.100467 -0.148529 12.9194
1 1.15215 1.04536 14.7683
1 0.0423052 -0.161475 16.604
1 1.34101 1.23305 18.5186
1 0.0384552 0.0813083 20.3932
1 1.39913 1.52488 22.3727
10
Atoms. Timestep: 89
1 -0.112761 0.184847 5.43964
1 1.21618 1.38447 7.27834
1 0.002917 -0.0978771 9.27849
1 1.20596 1.13668 11.1397
1 -0.104807 -0.147715 12.9148
1 1.15353 1.04839 14.7731
1 0.0450451 -0.15909 16.6118
1 1.34393 1.23269 18.5287
1 0.0408811 0.0814935 20.4029
1 1.39631 1.52331 22.3826
10
Atoms. Timestep: 90
1 -0.113227 0.1876 5.43044
1 1.21579 1.38221 7.26766
1 0.00370582 -0.0989267 9.26591
1 1.20364 1.13271 11.1344
1 -0.109004 -0.146879 12.9103
1 1.15502 1.05148 14.7779
1 0.0476886 -0.15663 16.6197
1 1.34672 1.23229 18.5388
1 0.0434266 0.0817119 20.4127
1 1.39343 1.52161 22.3922
10
Atoms. Timestep: 91
1 -0.113598 0.190289 5.42125
1 1.21532 1.37988 7.25721
1 0.00443423 -0.0998459 9.25318
1 1.20127 1.12872 11.1289
1 -0.11305 -0.146024 12.9062
1 1.15661 1.05464 14.7825
1 0.0502354 -0.154098 16.6277
1 1.34939 1.23187 18.5489
1 0.0460873 0.0819616 20.4226
1 1.3905 1.5198 22.4016
10
Atoms. Timestep: 92
1 -0.113873 0.192907 5.41206
1 1.21478 1.37747 7.24697
1 0.00509955 -0.100637 9.24033
1 1.19885 1.12471 11.1231
1 -0.116939 -0.145154 12.9023
1 1.15829 1.05785 14.787
1 0.0526853 -0.151497 16.6359
1 1.35193 1.23142 18.5588
1 0.0488584 0.0822405 20.4327
1 1.38751 1.51788 22.4108
10
Atoms. Timestep: 93
1 -0.114052 0.195448 5.40288
1 1.21416 1.375 7.23696
1 0.00569927 -0.101301 9.22737
1 1.19638 1.1207 11.117
1 -0.120665 -0.144271 12.8988
1 1.16007 1.0611 14.7914
1 0.055039 -0.14883 16.6442
1 1.35435 1.23096 18.5686
1 0.0517349 0.0825469 20.443
1 1.38447 1.51584 22.4198
10
Atoms. Timestep: 94
1 -0.114137 0.197908 5.39369
1 1.21348 1.37247 7.22717
1 0.00623103 -0.101841 9.21434
1 1.19387 1.11669 11.1107
1 -0.124226 -0.143382 12.8956
1 1.16193 1.0644 14.7957
1 0.057297 -0.146099 16.6525
1 1.35665 1.23047 18.5783
1 0.0547115 0.0828792 20.4535
1 1.38139 1.51369 22.4285
10
Atoms. Timestep: 95
1 -0.114127 0.200279 5.38451
1 1.21273 1.36989 7.2176
1 0.00669263 -0.102259 9.20125
1 1.19131 1.11269 11.1042
1 -0.127616 -0.142489 12.8927
1 1.16387 1.06773 14.7998
1 0.0594607 -0.143309 16.661
1 1.35882 1.22998 18.5879
1 0.0577825 0.0832359 20.4641
1 1.37827 1.51144 22.437
10
Atoms. Timestep: 96
1 -0.114023 0.202558 5.37532
1 1.21191 1.36726 7.20825
1 0.00708199 -0.102556 9.18814
1 1.18871 1.10872 11.0975
1 -0.130835 -0.141597 12.8901
1 1.16588 1.0711 14.8038
1 0.0615315 -0.14046 16.6695
1 1.36088 1.22948 18.5973
1 0.0609423 0.0836157 20.4749
1 1.37511 1.50908 22.4453
10
Atoms. Timestep: 97
1 -0.113828 0.204739 5.36614
1 1.21102 1.36458 7.19912
1 0.00739718 -0.102735 9.17501
1 1.18608 1.10478 11.0905
1 -0.13388 -0.14071 12.8878
1 1.16796 1.07449 14.8077
1 0.0635113 -0.137558 16.6781
1 1.36281 1.22897 18.6067
1 0.0641847 0.0840174 20.4858
1 1.37193 1.50662 22.4533
10
Atoms. Timestep: 98
1 -0.113542 0.206816 5.35695
1 1.21008 1.36187 7.1902
1 0.00763634 -0.102798 9.1619
1 1.18341 1.10088 11.0833
1 -0.13675 -0.139832 12.8858
1 1.1701 1.07791 14.8114
1 0.0654022 -0.134603 16.6868
1 1.36463 1.22845 18.6159
1 0.0675034 0.0844401 20.4968
1 1.36872 1.50405 22.4612
10
Atoms. Timestep: 99
1 -0.113167 0.208787 5.34777
1 1.20908 1.35912 7.18148
1 0.00779778 -0.102747 9.14883
1 1.1807 1.09703 11.0758