Generated by runner2lammps.sh, original comment line: 

   10 atoms

  1 atom types

  0.0000000000000000E+00   2.4748750196253857E+00 xlo xhi
  0.0000000000000000E+00   2.4748750196253857E+00 ylo yhi
  0.0000000000000000E+00   2.7750011014717785E+01 zlo zhi

Masses
  
  1 50

Atoms

    1   1   0.0000000000000000E+00   0.0000000000000000E+00   6.0000023655279637E+00
    2   1   1.2374374875872500E+00   1.2374374875872500E+00   7.7500030553633739E+00
    3   1   0.0000000000000000E+00   0.0000000000000000E+00   9.5000037451987840E+00
    4   1   1.2374374875872500E+00   1.2374374875872500E+00   1.1250004435034196E+01
    5   1   0.0000000000000000E+00   0.0000000000000000E+00   1.3000005124869606E+01
    6   1   1.2374374875872500E+00   1.2374374875872500E+00   1.4750005814705018E+01
    7   1   0.0000000000000000E+00   0.0000000000000000E+00   1.6500006504540426E+01
    8   1   1.2374374875872500E+00   1.2374374875872500E+00   1.8250007194375836E+01
    9   1   0.0000000000000000E+00   0.0000000000000000E+00   2.0000007884211250E+01
   10   1   1.2374374875872500E+00   1.2374374875872500E+00   2.1750008574575837E+01
