begin
lattice          10.90485800          0.00000000          0.00000000
lattice           0.00000000          5.45242900          0.00000000
lattice           0.00000000          0.00000000          5.45242900
atom           5.452428960         0.000000000         0.000000000 Cu   -0.01400261    0.00000000   -0.00000002    0.00000000    0.00000001
atom           2.726214480         2.726214480         2.726214480 Cu    0.00703346    0.00000000   -0.00915528   -0.00000001   -0.00000001
atom           8.178643441         2.726214480         2.726214480 Cu    0.00703346    0.00000000    0.00915527    0.00000000    0.00000000
energy         -4988.251302
charge             0.000000
end
begin
lattice          10.90485800          0.00000000          0.00000000
lattice           0.00000000         10.90485800          0.00000000
lattice           0.00000000          0.00000000          5.45242900
atom           0.000000000         5.452428960         0.000000000 Cu   -0.01915664    0.00000000    0.00000045   -0.00000150    0.00000000
atom           5.452428960         0.000000000         0.000000000 Cu   -0.01915662    0.00000000   -0.00000052    0.00000135    0.00000000
atom           5.452428960         5.452428960         0.000000000 Cu    0.00989061    0.00000000   -0.00000076   -0.00000205    0.00000000
atom           2.726214480         2.726214480         2.726214480 Cu    0.00716855    0.00000000   -0.00590389   -0.00590279    0.00000000
atom           2.726214480         8.178643441         2.726214480 Cu    0.00716866    0.00000000   -0.00590312    0.00590438    0.00000000
atom           8.178643441         2.726214480         2.726214480 Cu    0.00716859    0.00000000    0.00590445   -0.00590250    0.00000000
atom           8.178643441         8.178643441         2.726214480 Cu    0.00716870    0.00000000    0.00590368    0.00590409   -0.00000001
energy        -11639.310029
charge             0.000000
end
begin
lattice          -2.45664500          2.45664500          2.45664500
lattice           2.45664500         -2.45664500          2.45664500
lattice           2.45664500          2.45664500         -2.45664500
atom           0.000000000         0.000000000         0.000000000 Cu   -0.00004666    0.00000000    0.00000000    0.00000000    0.00000000
energy         -1662.738228
charge             0.000000
end
begin
lattice          -2.55113100          2.55113100          2.55113100
lattice           2.55113100         -2.55113100          2.55113100
lattice           2.55113100          2.55113100         -2.55113100
atom           0.000000000         0.000000000         0.000000000 Cu   -0.00001803    0.00000000    0.00000000    0.00000000    0.00000000
energy         -1662.754580
charge             0.000000
end
begin
lattice           4.44967600          0.00000000          0.00000000
lattice           0.00000000          4.44967600          0.00000000
lattice           0.00000000          0.00000000         50.99428000
atom           0.000000000         0.000000000        11.338361267 Cu   -0.00226243    0.00000000    0.00000001    0.00000000   -0.03981179
atom           2.224837814         2.224837814        14.484756518 Cu    0.00186879    0.00000000   -0.00000001    0.00000000   -0.00791177
atom           0.000000000         0.000000000        17.631151770 Cu    0.00061349    0.00000000    0.00000000    0.00000000    0.00018569
atom           2.224837814         2.224837814        20.777547021 Cu   -0.00102517    0.00000000    0.00000000    0.00000000    0.00114832
atom           0.000000000         0.000000000        23.923942273 Cu    0.00012395    0.00000000    0.00000000    0.00000000   -0.00087598
atom           2.224837814         2.224837814        27.070337524 Cu    0.00012449    0.00000000    0.00000000    0.00000000    0.00087410
atom           0.000000000         0.000000000        30.216732776 Cu   -0.00102529    0.00000000    0.00000000    0.00000000   -0.00113799
atom           2.224837814         2.224837814        33.363128027 Cu    0.00061373    0.00000000    0.00000000   -0.00000001   -0.00017808
atom           0.000000000         0.000000000        36.509523279 Cu    0.00186858    0.00000000    0.00000000    0.00000000    0.00789487
atom           2.224837814         2.224837814        39.655918530 Cu   -0.00226233    0.00000000    0.00000000    0.00000000    0.03981341
energy        -16627.462850
charge             0.000000
end
begin
lattice           4.53653100          0.00000000          0.00000000
lattice           0.00000000          4.53653100          0.00000000
lattice           0.00000000          0.00000000         51.54702500
atom           0.000000000         0.000000000        11.338361267 Cu   -0.00246662    0.00000000    0.00000000    0.00000000   -0.02672408
atom           2.268265628         2.268265628        14.546172642 Cu    0.00221656    0.00000000   -0.00000001    0.00000000   -0.00683731
atom           0.000000000         0.000000000        17.753984017 Cu    0.00066481    0.00000000    0.00000000    0.00000000    0.00027580
atom           2.268265628         2.268265628        20.961795392 Cu   -0.00122959    0.00000000    0.00000000   -0.00000001    0.00102669
atom           0.000000000         0.000000000        24.169606767 Cu    0.00020435    0.00000000    0.00000000    0.00000001   -0.00088873
atom           2.268265628         2.268265628        27.377418142 Cu    0.00020399    0.00000000    0.00000001   -0.00000001    0.00089387
atom           0.000000000         0.000000000        30.585229517 Cu   -0.00122961    0.00000000    0.00000001    0.00000001   -0.00103213
atom           2.268265628         2.268265628        33.793040892 Cu    0.00066445    0.00000000    0.00000000   -0.00000001   -0.00027369
atom           0.000000000         0.000000000        37.000852267 Cu    0.00221691    0.00000000   -0.00000001    0.00000000    0.00684839
atom           2.268265628         2.268265628        40.208663642 Cu   -0.00246613    0.00000000    0.00000000    0.00000000    0.02672087
energy        -16627.527698
charge             0.000000
end
begin
lattice           4.67683600          0.00000000          0.00000000
lattice           0.00000000          4.67683600          0.00000000
lattice           0.00000000          0.00000000         52.43992100
atom           0.000000000         0.000000000        11.338361267 Cu   -0.00264494    0.00000000    0.00000000    0.00000000   -0.01051057
atom           2.338417958         2.338417958        14.645383303 Cu    0.00298372    0.00000000    0.00000000    0.00000000   -0.00532373
atom           0.000000000         0.000000000        17.952405339 Cu    0.00009879    0.00000000   -0.00000001    0.00000000    0.00033947
atom           2.338417958         2.338417958        21.259427375 Cu   -0.00133530    0.00000000    0.00000000    0.00000000    0.00078136
atom           0.000000000         0.000000000        24.566449411 Cu    0.00039200    0.00000000    0.00000000    0.00000000   -0.00088439
atom           2.338417958         2.338417958        27.873471447 Cu    0.00039201    0.00000000   -0.00000001   -0.00000001    0.00089995
atom           0.000000000         0.000000000        31.180493483 Cu   -0.00133547    0.00000000    0.00000000    0.00000000   -0.00077992
atom           2.338417958         2.338417958        34.487515519 Cu    0.00009899    0.00000000   -0.00000001   -0.00000001   -0.00034372
atom           0.000000000         0.000000000        37.794537555 Cu    0.00298350    0.00000000    0.00000000    0.00000000    0.00531474
atom           2.338417958         2.338417958        41.101559592 Cu   -0.00264482    0.00000000    0.00000000    0.00000000    0.01051370
energy        -16627.588223
charge             0.000000
end
begin
atom           1.475513864        -0.141249525         0.030473736 Cu    0.02149251    0.00000000   -0.00125617   -0.00082982    0.00145271
atom           4.380252732         0.117140390         3.672410177 Cu    0.00537794    0.00000000    0.00427743   -0.00077028   -0.00063190
atom           0.628821736         2.813776865         3.475453393 Cu    0.00137480    0.00000000   -0.00526933   -0.00402025    0.00196210
atom           3.547297029         3.220105938         7.025953509 Cu   -0.00274440    0.00000000   -0.00156492    0.00353211   -0.00069445
atom           2.854912440         4.173284175        -0.296575626 Cu   -0.00868618    0.00000000   -0.00000246    0.00717216   -0.00299013
atom           6.669755110         4.145166929         2.484433375 Cu    0.01397535    0.00000000   -0.00071681   -0.00173746    0.00406817
atom           3.003599930         6.632062618         3.613813526 Cu   -0.01410744    0.00000000    0.00459994    0.00204381   -0.00176912
atom           6.494110666         6.554162407         6.586049658 Cu    0.02156000    0.00000000    0.00003845   -0.00171424   -0.00134629
atom           7.902541116         2.088546932         6.393649006 Cu   -0.00826749    0.00000000   -0.00071807   -0.00085119    0.00039655
atom           5.819309985         0.771550918        -0.614911457 Cu   -0.03791384    0.00000000    0.01077049   -0.00499941   -0.00336571
atom           3.102100053         1.413491138        -3.980050153 Cu    0.00249861    0.00000000   -0.00593130   -0.00009990   -0.00355338
atom          -0.043034750         5.918688832         6.751990355 Cu   -0.00858650    0.00000000   -0.00367103    0.00073188    0.00451703
atom           8.891310469        -0.082276819         2.481768860 Cu    0.01287641    0.00000000   -0.00048983    0.00155551    0.00195577
energy        -21615.357310
charge             0.000000
end
begin
atom           1.430264354        -0.199689329        -0.287293288 Cu    0.01967174    0.00000000   -0.00433287    0.00936775   -0.00661616
atom           3.005455641        -0.518015711         3.694911154 Cu   -0.00424606    0.00000000    0.01252086    0.00454287    0.01623085
atom           0.193182999         3.425866959         3.972409988 Cu   -0.00740521    0.00000000    0.00547490    0.00094229   -0.01388453
atom           2.969460124         2.456059126         7.342530004 Cu   -0.02028171    0.00000000    0.00646759   -0.00113018   -0.00082245
atom           3.130351470         4.124544340         0.262069213 Cu   -0.01899994    0.00000000    0.00431355   -0.00369134    0.01103281
atom           7.658460213         4.230996434         2.339256997 Cu   -0.00239086    0.00000000   -0.00742364    0.00497367   -0.00060843
atom           4.242718410         6.964875647         4.012903055 Cu   -0.02417958    0.00000000    0.00099167   -0.00703551   -0.00996841
atom           6.704921038         5.390428911         7.628734809 Cu   -0.00891378    0.00000000    0.00037115   -0.00745614   -0.00496377
atom           6.063863320         0.246061337         0.081980131 Cu   -0.00784206    0.00000000    0.00206104    0.01146133    0.00172104
atom           2.701043318         5.992941870        10.064029616 Cu   -0.01213349    0.00000000   -0.00059242   -0.00443682    0.00651022
atom           8.859627308        -3.399236928        -0.153638575 Cu   -0.00419294    0.00000000   -0.00175813   -0.00107689    0.00286802
atom           0.558831922         7.422886860         6.381084212 Cu    0.00021304    0.00000000   -0.00351554    0.00019309   -0.00029817
atom          -1.154449267         3.861430108         8.437105165 Cu    0.01692101    0.00000000   -0.00253056   -0.00069483    0.00473572
atom           4.210708326        -3.736968916         0.621064408 Cu   -0.02587915    0.00000000   -0.00554287   -0.00980620    0.00004982
atom           9.963414888         0.255383359         2.572267880 Cu    0.00368449    0.00000000    0.00321095   -0.00630253   -0.00341956
atom           7.030059885         1.000466763         5.875907305 Cu   -0.01097195    0.00000000   -0.01074572   -0.00037910    0.00335643
atom           7.058379332        -3.245362138         4.156057425 Cu   -0.00577341    0.00000000   -0.00426762    0.00394289   -0.00461476
atom          10.636569617         3.586701614         5.727206587 Cu    0.00975573    0.00000000    0.00316912    0.00432566   -0.00017584
atom           4.464254871         9.427860621         7.806852906 Cu    0.04281010    0.00000000   -0.00139134    0.00351483   -0.00307837
atom           5.943604881         7.815878241        -0.071686789 Cu    0.03545340    0.00000000    0.00072779   -0.00904940    0.00209425
atom           6.941441144        -7.217452762         1.625973918 Cu    0.02490208    0.00000000    0.00274331    0.00785490   -0.00025639
energy        -34917.211848
charge             0.000000
end
begin
atom           1.032773533        -0.845756713        -0.247455955 Cu   -0.01355920    0.00000000   -0.02209913    0.00438913   -0.02213401
atom           3.526829397         0.369965059         3.104456543 Cu   -0.01537941    0.00000000    0.00030795    0.03602943   -0.00735202
atom           0.043108450         3.056098432         2.726843759 Cu   -0.00280443    0.00000000   -0.00844056    0.01210353   -0.01187301
atom           1.996243223         1.733835749         7.004325585 Cu   -0.00958436    0.00000000   -0.00910946    0.01300369    0.01905760
atom           3.217307253         3.131029882        -0.621602980 Cu   -0.02133734    0.00000000   -0.01023501    0.01169747    0.00328448
atom           6.649261022         3.274239054         2.739145881 Cu   -0.01388933    0.00000000    0.01650660    0.02304951   -0.00428454
atom           2.968063616         7.026786878         3.530656094 Cu   -0.00246966    0.00000000    0.01006857   -0.00814455    0.00656233
atom           5.335031568         5.259926263         7.025097463 Cu   -0.00555271    0.00000000    0.00573955   -0.00051969   -0.00484942
atom           5.837628997        -0.934271520        -0.686278882 Cu    0.00789666    0.00000000    0.00062518    0.00280514   -0.01340374
atom           3.474383807        -3.629161887         1.976448334 Cu    0.00083622    0.00000000   -0.00419532   -0.04822248   -0.00319954
atom           6.337318137         0.920361240         6.647849396 Cu   -0.04386858    0.00000000    0.02255674    0.02143740    0.02692411
atom          -0.223747442        -1.245702289         4.283377773 Cu    0.00114671    0.00000000   -0.03074922   -0.01094090    0.00009136
atom           7.279314861        -1.501457924         3.331229437 Cu    0.01982685    0.00000000    0.03673807   -0.02211034    0.00084738
atom           0.659815147         7.025862802        -0.127286333 Cu    0.03687672    0.00000000   -0.00142956   -0.00599738   -0.00768322
atom           3.573452739         0.511284504        -4.159447595 Cu    0.02609789    0.00000000   -0.00252555    0.00076093   -0.00774050
atom           3.590811770        -2.433369175         6.287988707 Cu    0.01970163    0.00000000    0.00138593   -0.03050631    0.02514166
atom           0.897117600         6.098390520         7.435086937 Cu    0.00615187    0.00000000    0.00013098   -0.00226092    0.00477267
atom           5.457920507         6.976440775        -0.252365466 Cu   -0.00220777    0.00000000    0.00431949    0.00026104   -0.00017163
atom          -2.344412172         2.942886785         6.408645878 Cu   -0.00319902    0.00000000   -0.00749691   -0.00043426    0.00152237
atom           7.290783613         3.056088983        -2.154715719 Cu    0.01712912    0.00000000    0.00665829    0.00418710   -0.00239702
atom          -1.611307748         7.092205444         3.894889612 Cu   -0.00137092    0.00000000   -0.00873708   -0.00069639   -0.00301075
energy        -34917.223532
charge             0.000000
end
