144
Atoms. Timestep: 0
1 9.55381 0.985184 10.1839
1 -3.29184 6.92718 7.9541
1 -0.297166 10.8988 1.90811
1 12.5485 4.95682 4.13787
1 12.2775 0.912691 4.18624
1 -0.0262229 6.85469 1.85974
1 -3.0209 10.9713 7.90573
1 9.28287 5.02931 10.2322
1 9.06992 0.979242 6.12821
1 -2.80795 6.92124 12.0097
1 0.186725 10.9048 5.96376
1 12.0646 4.96276 0.0822254
1 12.0343 0.970923 0.0725518
1 0.216999 6.91292 5.97343
1 -2.77768 10.9131 12.0194
1 9.03964 4.97108 6.11853
1 3.17371 1.04936 7.416
1 3.08826 6.99136 10.7219
1 6.08294 10.8346 4.67596
1 6.16838 4.89264 1.37002
1 6.20214 0.862778 1.1572
1 6.04918 6.80478 4.88878
1 3.0545 11.0212 10.9348
1 3.20746 5.07922 7.20318
1 -0.140151 0.92814 9.51396
1 6.40212 6.87014 8.62399
1 9.39679 10.9559 2.57801
1 2.85453 5.01386 3.46798
1 2.61609 0.988749 3.46918
1 9.63523 6.93075 2.5768
1 6.64055 10.8953 8.62278
1 -0.378587 4.95325 9.51517
1 6.2869 2.94842 8.7304
1 -0.0249359 8.89042 9.40755
1 2.96974 8.93558 3.36157
1 9.28158 2.99358 2.68442
1 5.85752 2.65845 5.03872
1 6.3938 8.60045 1.00726
1 3.39912 9.22555 7.05324
1 2.86284 3.28355 11.0847
1 0.148934 2.83315 5.76303
1 12.1024 8.77515 0.282952
1 9.10771 9.05085 6.32893
1 -2.84574 3.10885 11.809
1 -0.0614006 2.76184 1.61065
1 12.3127 8.70384 4.43533
1 9.31804 9.12216 10.4813
1 -3.05608 3.18016 7.65663
2 11.4271 2.96625 3.53932
2 0.824239 8.90825 2.50666
2 -2.17044 8.91775 8.55265
2 8.4324 2.97575 9.5853
2 5.35651 0.879416 8.18021
2 0.905458 6.82142 9.95773
2 3.90014 11.0046 3.91175
2 8.35119 5.06258 2.13423
2 8.29869 1.08857 2.02782
2 3.95263 7.03057 4.01816
2 0.957949 10.7954 10.0641
2 5.30402 4.85343 8.07381
2 5.09343 2.85216 0.883923
2 7.15789 8.79416 5.16206
2 4.16322 9.03184 11.208
2 2.09875 3.08984 6.92991
2 -3.71515 1.00895 11.4281
2 9.97712 6.95095 6.70983
2 12.9718 10.875 0.663849
2 -0.720473 4.93305 5.38213
2 -1.02899 0.930517 5.35553
2 13.2803 6.87252 0.690451
2 10.2856 10.9535 6.73643
2 -4.02367 5.01148 11.4015
2 8.30415 1.4653 11.9989
2 -2.04218 7.4073 6.13909
2 0.952495 10.4187 0.0931081
2 11.2988 4.4767 5.95287
2 11.2986 1.67802 6.16569
2 -5.03665 7.62002 11.9723
2 -2.04197 10.206 5.92627
2 14.2933 4.26398 0.11971
2 9.1488 2.97575 4.96859
2 3.10252 8.91775 1.07739
2 0.107841 8.90825 7.12338
2 6.15412 2.96625 11.0146
2 1.1536 1.75527 11.3036
2 5.10836 7.69727 6.83438
2 8.10304 10.1287 0.788396
2 4.14828 4.18673 5.25759
2 3.85752 1.46054 5.30595
2 8.3938 7.40254 0.740028
2 5.39912 10.4235 6.78601
2 0.86284 4.48146 11.3519
2 -1.16473 2.80106 10.2866
2 7.42669 8.74306 7.85131
2 10.4214 9.08294 1.80533
2 1.82995 3.14094 4.24065
2 8.42471 0.425447 8.25881
2 -2.16275 6.36745 9.87914
2 0.831932 11.4586 3.83315
2 11.4194 5.51655 2.21283
2 10.9368 0.741562 2.02057
2 1.31453 6.68356 4.02542
2 -1.68015 11.1424 10.0714
2 7.94212 5.20044 8.06655
2 -4.22706 2.43028 9.33742
2 10.489 8.37228 8.80053
2 13.4837 9.45372 2.75455
2 -1.23238 3.51172 3.29143
2 5.96526 0.944778 3.42686
2 6.28607 6.88678 2.61912
2 3.29139 10.9392 8.6651
2 2.97058 4.99722 9.47285
2 0.875972 0.515766 7.53329
2 5.38599 6.45777 10.6047
2 8.38067 11.3682 4.55867
2 3.87065 5.42623 1.48731
2 3.84806 0.5122 1.61911
2 8.40327 6.4542 4.42687
2 5.40859 11.3718 10.4729
2 0.853376 5.4298 7.6651
2 3.47571 2.47425 9.12097
2 2.78626 8.41625 9.01698
2 5.78094 9.40975 2.971
2 6.47038 3.46775 3.07499
2 13.9365 1.01727 2.61912
2 -1.68519 6.95927 3.42686
2 -4.67987 10.8667 9.47285
2 10.9418 4.92473 8.6651
2 3.78523 1.22643 11.5249
2 2.47674 7.16843 6.6131
2 5.47141 10.6576 0.567113
2 6.77991 4.71557 5.47887
2 7.33923 2.31025 6.84284
2 -1.07727 8.25225 11.2951
2 1.91741 9.57375 5.24912
2 10.3339 3.63175 0.796861
2 2.25458 2.4588 1.69046
2 9.99674 8.4008 4.35553
2 7.00207 9.4252 10.4015
2 -0.740102 3.4832 7.73644
2 -2.0732 1.14799 8.21165
2 8.33516 7.08999 9.92629
2 11.3298 10.736 3.88031
2 0.921483 4.79401 2.16567
144
Atoms. Timestep: 10
1 9.5639 1.00918 10.242
1 -3.31207 6.93003 7.94049
1 -0.306593 10.9509 1.90726
1 12.5686 4.90714 4.10665
1 12.3035 0.864162 4.17657
1 0.00526173 6.80815 1.81046
1 -3.05332 10.9221 7.91177
1 9.23021 4.97845 10.1634
1 9.12219 1.03737 6.08114
1 -2.75968 6.95942 11.9363
1 0.258955 10.9421 6.01255
1 12.1305 4.93815 0.157217
1 11.9881 0.892303 0.00253427
1 0.243757 6.82435 6.02326
1 -2.83148 10.8837 12.0334
1 9.01927 5.02006 6.17357
1 3.23758 1.08748 7.35784
1 3.08036 6.99944 10.6492
1 6.12756 10.8922 4.7433
1 6.11602 4.94235 1.42359
1 6.2383 0.846201 1.20497
1 6.08664 6.75937 4.94888
1 3.02088 10.9886 10.8876
1 3.18167 5.04877 7.26004
1 -0.163997 0.963556 9.47906
1 6.34562 6.80174 8.68857
1 9.44656 10.9655 2.59996
1 2.79611 4.99459 3.50017
1 2.58886 1.05372 3.4374
1 9.61358 6.8687 2.6169
1 6.642 10.9087 8.58999
1 -0.403251 4.87708 9.49549
1 6.23234 2.97093 8.67482
1 -0.0528699 8.91385 9.41445
1 2.96564 8.97739 3.37547
1 9.25144 3.02172 2.62734
1 5.78379 2.72388 4.99901
1 6.43543 8.64684 0.957822
1 3.34565 9.24865 7.09116
1 2.79472 3.31724 11.0572
1 0.0877956 2.82025 5.74214
1 12.0848 8.8127 0.328839
1 9.09053 9.04922 6.2592
1 -2.84055 3.03299 11.8047
1 -0.125289 2.81452 1.66276
1 12.3169 8.64265 4.43003
1 9.28253 9.19589 10.4185
1 -3.11483 3.169 7.7065
2 11.4726 3.01064 3.60038
2 0.890072 8.92486 2.56124
2 -2.17558 8.979 8.57166
2 8.38587 3.02548 9.55193
2 5.38049 0.855667 8.22553
2 0.883023 6.87363 9.96794
2 3.96123 11.0639 3.96437
2 8.39835 4.99586 2.18271
2 8.33425 1.14362 2.00109
2 3.98035 7.08586 4.07398
2 1.00455 10.7839 10.1075
2 5.36724 4.82613 8.0427
2 5.08851 2.89379 0.845424
2 7.09825 8.83915 5.2109
2 4.11186 8.99233 11.2446
2 2.0876 3.02584 6.96495
2 -3.65592 0.974776 11.4768
2 9.96797 6.94885 6.74195
2 12.9711 10.8347 0.620844
2 -0.695109 4.87465 5.41196
2 -1.00271 0.859326 5.38379
2 13.2328 6.91622 0.681893
2 10.2569 10.9145 6.73825
2 -4.01481 5.0365 11.4535
2 8.27261 1.41638 11.9836
2 -2.0829 7.34622 6.19541
2 0.903524 10.3839 0.118695
2 11.2704 4.51931 5.89855
2 11.2863 1.69212 6.12507
2 -5.02329 7.68294 12.0221
2 -1.98647 10.1965 5.93497
2 14.2512 4.21714 0.0521007
2 9.21551 2.96554 4.93307
2 3.03276 8.91912 1.07556
2 0.0963945 8.88416 7.12996
2 6.16495 2.97755 10.9671
2 1.1776 1.7816 11.3285
2 5.07365 7.74811 6.87779
2 8.14642 10.0609 0.740959
2 4.10018 4.23008 5.25593
2 3.86912 1.52973 5.32445
2 8.42 7.44804 0.725891
2 5.45212 10.4764 6.77745
2 0.901867 4.46337 11.2914
2 -1.17535 2.79752 10.3422
2 7.45031 8.76696 7.85723
2 10.4705 9.05532 1.78504
2 1.82905 3.14481 4.29436
2 8.45417 0.442823 8.22409
2 -2.14262 6.29546 9.83679
2 0.770129 11.4755 3.8192
2 11.4739 5.50789 2.2031
2 10.8898 0.799809 1.95891
2 1.29195 6.67802 3.97934
2 -1.7116 11.1683 10.0501
2 7.89208 5.20139 8.13519
2 -4.25054 2.38614 9.31559
2 10.4917 8.3929 8.76295
2 13.456 9.39928 2.77585
2 -1.25992 3.51075 3.26184
2 5.93619 0.937119 3.46479
2 6.35364 6.91409 2.64264
2 3.35053 10.8721 8.61584
2 2.96899 4.92741 9.44499
2 0.860336 0.449556 7.51738
2 5.39372 6.47249 10.6666
2 8.36126 11.3576 4.57644
2 3.87873 5.48333 1.47702
2 3.88316 0.5699 1.62204
2 8.39366 6.51846 4.41956
2 5.47036 11.3126 10.4681
2 0.889499 5.402 7.656
2 3.54226 2.43718 9.10993
2 2.72886 8.4586 9.06602
2 5.82635 9.39705 2.93686
2 6.40448 3.42221 3.01176
2 13.9298 1.02981 2.6108
2 -1.63733 7.0093 3.44996
2 -4.66833 10.8461 9.52456
2 10.9049 4.87411 8.68609
2 3.75888 1.19808 11.4747
2 2.4289 7.14274 6.6629
2 5.41023 10.6593 0.506909
2 6.81375 4.73642 5.49955
2 7.32002 2.32206 6.81219
2 -1.13336 8.29371 11.3008
2 1.89291 9.61078 5.19251
2 10.3346 3.59283 0.813009
2 2.29344 2.50846 1.74199
2 10.0213 8.37265 4.3388
2 7.02924 9.38819 10.3435
2 -0.746974 3.53076 7.70846
2 -2.03358 1.21038 8.23423
2 8.39965 7.09893 9.88803
2 11.3123 10.6907 3.86672
2 0.896164 4.74025 2.12459
144
Atoms. Timestep: 20
1 9.55449 1.0299 10.2539
1 -3.32931 6.93834 7.98074
1 -0.341398 10.924 1.912
1 12.5774 4.91376 4.12135
1 12.3157 0.840272 4.16228
1 0.00395703 6.80019 1.79216
1 -3.082 10.9267 7.91495
1 9.2324 4.97409 10.145
1 9.11567 1.04845 6.07988
1 -2.77289 6.95472 11.8995
1 0.291707 10.8994 6.00222
1 12.1293 4.91512 0.177148
1 5.97095 0.869463 12.0491
1 0.23298 6.79003 6.02649
1 -2.84286 10.8673 12.0354
1 9.0001 5.02986 6.20405
1 3.25464 1.08718 7.37422
1 3.08344 6.9868 10.6308
1 6.15234 10.901 4.72243
1 6.0963 4.95791 1.43054
1 6.25492 0.848508 1.21869
1 6.06652 6.78517 4.98512
1 3.0417 10.9711 10.8571
1 3.19468 5.01476 7.26972
1 -0.140652 0.947415 9.46741
1 6.30227 6.80521 8.71945
1 9.44998 10.9834 2.59991
1 2.78242 5.03593 3.48888
1 2.55946 1.06 3.43419
1 9.63746 6.83798 2.6136
1 6.70233 10.9182 8.59539
1 -0.423734 4.85967 9.47272
1 6.21018 2.93189 8.66851
1 -0.0700495 8.9452 9.41259
1 3.02459 8.99942 3.37899
1 9.26726 3.00423 2.66583
1 5.73992 2.79811 4.95552
1 6.4749 8.67716 0.95725
1 3.3419 9.21947 7.09629
1 2.79717 3.29339 11.0191
1 0.064609 2.79414 5.7302
1 12.0934 8.82982 0.32022
1 9.08092 9.02755 6.22946
1 -2.88546 3.00807 11.8051
1 -0.165032 2.78883 1.58893
1 12.3531 8.60521 4.4922
1 9.30157 9.20389 10.4082
1 -3.16531 3.17308 7.66229
2 11.4966 3.02521 3.65918
2 0.931915 8.9378 2.60129
2 -2.17625 9.02255 8.58279
2 8.33344 3.04567 9.52276
2 5.39476 0.833416 8.26886
2 0.85099 6.90829 9.96627
2 4.0182 11.1301 4.00087
2 8.41784 4.95372 2.22935
2 8.36244 1.17493 1.97354
2 4.00909 7.13225 4.12496
2 1.01724 10.7786 10.1331
2 5.40225 4.82648 8.00103
2 5.09838 2.92836 0.808906
2 7.02695 8.87335 5.26083
2 4.06463 8.95565 11.2893
2 2.06965 2.96963 6.98611
2 -3.60807 0.951699 11.5163
2 9.95539 6.96215 6.76871
2 12.9809 10.7996 0.583118
2 -0.679009 4.82398 5.43631
2 -0.980578 0.784187 5.40037
2 13.1882 6.95287 0.686168
2 10.2195 10.8912 6.74501
2 -4.00081 5.06113 11.4938
2 8.22419 1.38781 11.9756
2 -2.09434 7.30294 6.24026
2 0.8638 10.3355 0.150056
2 11.2316 4.54278 5.84469
2 11.2854 1.72698 6.07652
2 -5.0079 7.7615 12.069
2 -1.92919 10.1716 5.94882
2 8.23451 4.15056 12.0705
2 9.29514 2.97991 4.90422
2 2.94899 8.91963 1.07013
2 0.069064 8.85202 7.12186
2 6.18766 2.97734 10.9353
2 1.17873 1.81066 11.3612
2 5.0505 7.81041 6.91408
2 8.2094 9.99278 0.694629
2 4.04312 4.26141 5.265
2 3.86731 1.60819 5.31169
2 8.45975 7.49798 0.714347
2 5.48842 10.5028 6.7803
2 0.909422 4.44563 11.2491
2 -1.16345 2.78961 10.3915
2 7.45569 8.77209 7.8589
2 10.4823 9.03731 1.78009
2 1.83606 3.14406 4.35578
2 8.49251 0.467105 8.19036
2 -2.13093 6.22916 9.79816
2 0.711956 11.4964 3.81371
2 11.5219 5.50368 2.19964
2 10.8429 0.857486 1.90334
2 1.26343 6.67364 3.93885
2 -1.74027 11.1965 10.0332
2 7.85028 5.20306 8.19268
2 -4.28876 2.32974 9.31706
2 10.4943 8.41188 8.72604
2 13.4538 9.37803 2.76627
2 -1.29754 3.51912 3.26369
2 5.90681 0.933936 3.5016
2 6.41804 6.94456 2.66577
2 3.40787 10.8292 8.57701
2 2.96574 4.86133 9.43536
2 0.865034 0.413727 7.53682
2 5.39828 6.48146 10.7382
2 8.35364 11.3522 4.58501
2 3.87707 5.54102 1.47991
2 3.92443 0.62592 1.63254
2 8.36716 6.57459 4.41988
2 5.51426 11.2488 10.4526
2 0.922355 5.36106 7.67214
2 3.60516 2.40584 9.1053
2 2.66837 8.50209 9.10379
2 5.86829 9.40241 2.92893
2 6.34282 3.38432 2.94478
2 13.929 1.04595 2.60798
2 -1.58763 7.04624 3.45886
2 -4.66022 10.8383 9.56471
2 10.8851 4.82705 8.7069
2 3.72183 1.18312 11.4222
2 2.4035 7.13808 6.71693
2 5.36173 10.6588 0.451505
2 6.83993 4.7305 5.52321
2 7.30791 2.3288 6.77663
2 -1.17096 8.34057 11.2932
2 1.86811 9.65141 5.14309
2 10.349 3.56292 0.810251
2 2.32632 2.56179 1.7845
2 10.0514 8.34313 4.31767
2 7.04521 9.35077 10.2975
2 -0.759423 3.57041 7.67945
2 -2.01226 1.26572 8.25376
2 8.46601 7.11588 9.84687
2 11.3101 10.6413 3.85443
2 0.877365 4.69719 2.08904
144
Atoms. Timestep: 30
1 9.50528 1.00428 10.2263
1 -3.33479 6.9388 8.0612
1 -0.392607 10.8358 1.92584
1 12.581 5.00451 4.17915
1 12.3122 0.835161 4.15283
1 -0.0352432 6.8241 1.80601
1 -3.10352 10.9962 7.90338
1 9.28022 5.02512 10.1954
1 9.05805 1.0167 6.10646
1 -2.83521 6.93299 11.9068
1 0.268866 10.8073 5.97143
1 12.0687 4.89626 0.124906
1 5.9665 0.899178 12.0432
1 0.195647 6.81109 5.98188
1 -2.81969 10.8594 12.0241
1 8.98516 5.00552 6.2102
1 3.22867 1.02513 7.42613
1 3.0792 6.94212 10.6668
1 6.14614 10.8643 4.64151
1 6.12795 4.95513 1.37668
1 6.24185 0.8685 1.19419
1 6.01616 6.85801 4.99829
1 3.12394 10.9661 10.8405
1 3.23136 4.99601 7.23065
1 -0.0899115 0.895154 9.49815
1 6.28537 6.8888 8.71854
1 9.41989 10.9983 2.57274
1 2.80202 5.10962 3.43831
1 2.5405 1.00437 3.46297
1 9.69009 6.84591 2.5706
1 6.80988 10.9167 8.61689
1 -0.416857 4.89088 9.46105
1 6.21503 2.85788 8.68811
1 -0.0685112 8.96798 9.4045
1 3.13189 9.01553 3.37273
1 9.34825 2.95536 2.75611
1 5.74523 2.86423 4.92511
1 6.48203 8.68161 0.999985
1 3.36508 9.15365 7.05971
1 2.87929 3.22147 11.0053
1 0.0853738 2.72961 5.74187
1 12.1025 8.80908 0.239963
1 9.07528 8.99276 6.23317
1 -2.95338 3.05502 11.8111
1 -0.191887 2.71347 1.46736
1 12.416 8.61892 4.58154
1 9.36479 9.13593 10.4541
1 -3.20069 3.1753 7.57251
2 11.5004 2.99976 3.7099
2 0.944224 8.94485 2.62863
2 -2.17538 9.04367 8.58339
2 8.2862 3.03221 9.50101
2 5.39779 0.803683 8.30222
2 0.809917 6.92135 9.95311
2 4.05663 11.2032 4.016
2 8.40219 4.94268 2.27201
2 8.37161 1.1748 1.94201
2 4.033 7.16628 4.16565
2 0.992257 10.7809 10.1384
2 5.4066 4.84857 7.9504
2 5.11771 2.95174 0.773745
2 6.95014 8.88673 5.31243
2 4.03173 8.92316 11.3372
2 2.04246 2.92853 6.99227
2 -3.58018 0.942188 11.5387
2 9.93763 6.98335 6.78669
2 13.0046 10.7884 0.549979
2 -0.674992 4.7936 5.45082
2 -0.971699 0.713343 5.40234
2 13.1553 6.97283 0.708093
2 10.1757 10.8839 6.7572
2 -3.98631 5.07677 11.5189
2 8.15866 1.37862 11.9712
2 -2.0728 7.27591 6.27533
2 0.838094 10.2802 0.186904
2 11.1786 4.54774 5.79882
2 11.2947 1.77829 6.01631
2 0.993011 7.84345 0.0180239
2 -1.87612 10.1325 5.97042
2 8.22431 4.06827 11.9906
2 9.37611 3.01765 4.9018
2 2.86362 8.91646 1.06523
2 0.0279028 8.80781 7.10183
2 6.21533 2.96369 10.9268
2 1.14899 1.83585 11.4027
2 5.05357 7.87091 6.94223
2 8.29439 9.94272 0.6542
2 3.97723 4.28275 5.28
2 3.8429 1.68653 5.27686
2 8.51355 7.53838 0.708681
2 5.50869 10.5036 6.79544
2 0.881119 4.43038 11.2292
2 -1.1291 2.77429 10.4259
2 7.44279 8.75323 7.85454
2 10.4541 9.03298 1.79632
2 1.85559 3.14575 4.41342
2 8.54005 0.499489 8.16931
2 -2.13601 6.17621 9.77242
2 0.662168 11.5216 3.8097
2 11.5612 5.50397 2.21009
2 10.7984 0.914551 1.85402
2 1.2221 6.67244 3.90863
2 -1.76703 11.228 10.0221
2 7.82408 5.21025 8.22974
2 -4.31822 2.28278 9.31779
2 10.4927 8.43982 8.69653
2 13.4652 9.38571 2.73785
2 -1.31899 3.52071 3.26855
2 5.87984 0.942953 3.52878
2 6.47702 6.97328 2.68724
2 3.46384 10.8215 8.55734
2 2.96054 4.80657 9.44127
2 0.892783 0.405597 7.58259
2 5.40175 6.48695 10.8143
2 8.36766 11.3556 4.58203
2 3.86604 5.59804 1.49636
2 3.96967 0.679262 1.65416
2 8.32239 6.61653 4.42738
2 5.5324 11.1851 10.4308
2 0.952354 5.31128 7.71022
2 3.66256 2.38654 9.10974
2 2.60416 8.54377 9.12667
2 5.90459 9.42799 2.94961
2 6.29002 3.3559 2.87707
2 13.9346 1.06557 2.60931
2 -1.53384 7.06486 3.45317
2 -4.65071 10.8523 9.5902
2 10.8897 4.78135 8.72151
2 3.67955 1.17861 11.3719
2 2.39846 7.15049 6.77551
2 5.3345 10.6562 0.404383
2 6.85655 4.70814 5.55044
2 7.30139 2.33319 6.73545
2 -1.18899 8.38941 11.2746
2 1.85996 9.6822 5.0886
2 10.3716 3.53815 0.794462
2 2.35127 2.61666 1.81724
2 10.0934 8.31532 4.29558
2 7.05401 9.30804 10.2701
2 -0.783416 3.59174 7.64866
2 -2.01041 1.3152 8.27174
2 8.52786 7.13743 9.80115
2 11.3233 10.5895 3.84213
2 0.864749 4.66871 2.0607
144
Atoms. Timestep: 40
1 9.43188 0.936731 10.191
1 -3.32314 6.94193 8.10777
1 -0.409325 10.7669 1.94282
1 12.6045 5.10384 4.22736
1 12.3062 0.826441 4.14922
1 -0.0782082 6.85104 1.82161
1 -3.10418 11.0896 7.88298
1 9.32895 5.08644 10.2711
1 9.00781 0.983648 6.09607
1 -2.87227 6.95866 11.9383
1 0.232968 10.7582 5.99086
1 12.0108 4.87918 0.0563745
1 5.96245 0.919846 12.0649
1 0.184601 6.83806 5.92064
1 -2.80333 10.8579 12.0077
1 8.97112 4.98601 6.21249
1 3.18474 0.942917 7.44704
1 3.04506 6.89014 10.7033
1 6.13819 10.8264 4.59308
1 6.2036 4.95663 1.28713
1 6.21256 0.893662 1.16211
1 6.00733 6.89614 5.00039
1 3.20045 10.945 10.8152
1 3.24261 5.0143 7.21208
1 -0.063119 0.851935 9.56348
1 6.29893 6.98403 8.71742
1 9.3976 11.004 2.53538
1 2.82204 5.16519 3.38785
1 2.53126 0.935788 3.48586
1 9.73259 6.86977 2.5418
1 6.90668 10.9018 8.62403
1 -0.379272 4.92057 9.45605
1 6.21447 2.82998 8.67953
1 -0.0472719 8.96007 9.38749
1 3.21089 9.04859 3.3434
1 9.45411 2.91682 2.7694
1 5.76302 2.89442 4.91024
1 6.47399 8.67752 1.04821
1 3.35793 9.14087 7.03257
1 2.94988 3.17439 11.039
1 0.116253 2.65509 5.7759
1 12.0769 8.78152 0.128243
1 9.06929 8.96363 6.24332
1 -2.98412 3.1183 11.8096
1 -0.206376 2.67059 1.43476
1 12.4781 8.67847 4.61598
1 9.44038 9.05609 10.5151
1 -3.21753 3.16842 7.53274
2 11.5109 2.95368 3.74581
2 0.939422 8.94387 2.65257
2 -2.18095 9.05391 8.56906
2 8.26998 3.00453 9.49395
2 5.39342 0.748626 8.32035
2 0.767919 6.91389 9.93088
2 4.05919 11.2798 4.00905
2 8.36125 4.94789 2.3144
2 8.35282 1.15316 1.90932
2 4.03429 7.18304 4.18538
2 0.959541 10.7921 10.1356
2 5.39645 4.87505 7.90374
2 5.13181 2.96307 0.735382
2 6.88543 8.87846 5.36948
2 4.02473 8.89002 11.3698
2 2.01676 2.9025 6.98961
2 -3.57161 0.956753 11.5412
2 9.91616 6.99409 6.7962
2 13.0323 10.8035 0.51536
2 -0.675556 4.77679 5.45422
2 -0.981118 0.655152 5.39019
2 13.1385 6.9637 0.751914
2 10.1297 10.8876 6.77654
2 -3.9796 5.07812 11.5254
2 8.08751 1.38054 11.9523
2 -2.03189 7.26057 6.3186
2 0.831539 10.2374 0.231174
2 11.1168 4.5417 5.76687
2 11.3021 1.82939 5.94224
2 0.989405 7.89363 0.0590135
2 -1.84184 10.0851 6.00822
2 8.2218 3.98508 11.9064
2 9.43384 3.06666 4.95876
2 2.80249 8.91552 1.0692
2 -0.0229146 8.74869 7.08137
2 6.23927 2.93673 10.9439
2 1.09843 1.86305 11.4467
2 5.10539 7.90973 6.96235
2 8.37583 9.92408 0.628743
2 3.91293 4.28939 5.28013
2 3.7985 1.75543 5.244
2 8.56752 7.55343 0.716222
2 5.52437 10.487 6.8193
2 0.837159 4.4081 11.2316
2 -1.08427 2.75181 10.44
2 7.41634 8.71462 7.84133
2 10.4062 9.04234 1.82271
2 1.88913 3.15785 4.44925
2 8.59333 0.53645 8.17721
2 -2.16359 6.14234 9.77759
2 0.623859 11.546 3.79798
2 11.5993 5.50123 2.22622
2 10.758 0.97129 1.81435
2 1.16667 6.67386 3.8884
2 -1.7947 11.2622 10.0132
2 7.81564 5.22814 8.24749
2 -4.3235 2.25957 9.29935
2 10.4887 8.48549 8.67359
2 13.4572 9.39035 2.72235
2 -1.3184 3.51695 3.25515
2 5.86332 0.972858 3.54149
2 6.5268 6.99479 2.70135
2 3.51734 10.8332 8.54845
2 2.9544 4.76787 9.4493
2 0.937696 0.403233 7.62374
2 5.40301 6.50282 10.8706
2 8.39892 11.3656 4.56574
2 3.86026 5.65142 1.51842
2 4.01018 0.730313 1.69009
2 8.2719 6.64295 4.43272
2 5.52557 11.1322 10.4107
2 0.987659 5.26468 7.75169
2 3.71503 2.37703 9.10823
2 2.53939 8.57469 9.14136
2 5.93221 9.46218 2.98371
2 6.25093 3.34066 2.8143
2 13.9453 1.08509 2.61524
2 -1.48926 7.07427 3.44737
2 -4.6391 10.8823 9.60273
2 10.915 4.73286 8.72957
2 3.64321 1.16767 11.3333
2 2.39824 7.16136 6.83617
2 5.34193 10.6484 0.370448
2 6.86187 4.69347 5.57967
2 7.29392 2.3389 6.69276
2 -1.20161 8.4261 11.2549
2 1.88582 9.68992 5.0122
2 10.3898 3.51289 0.783252
2 2.36929 2.65971 1.84864
2 10.1487 8.29033 4.28146
2 7.06979 9.25839 10.2602
2 -0.82185 3.59193 7.62233
2 -2.01955 1.35808 8.29522
2 8.57613 7.15322 9.74781
2 11.3428 10.5411 3.82371
2 0.848348 4.65063 2.03982
144
Atoms. Timestep: 50
1 9.40359 0.898272 10.1923
1 -3.31372 6.96687 8.08036
1 -0.376942 10.7798 1.94963
1 12.6469 5.13132 4.24373
1 12.3179 0.789598 4.14529
1 -0.0773258 6.85111 1.79782
1 -3.08315 11.1556 7.86441
1 9.35514 5.12044 10.3094
1 9.00007 0.983864 6.03574
1 -2.84065 7.02932 11.9699
1 0.273015 10.7733 6.04603
1 12.0071 4.86017 0.0416955
1 5.93028 0.879368 12.089
1 0.226561 6.82944 5.87234
1 -2.81747 10.8728 11.9962
1 8.95321 5.00432 6.23457
1 3.16162 0.918815 7.41778
1 2.9798 6.85857 10.7025
1 6.14913 10.8611 4.64977
1 6.29113 4.96857 1.22454
1 6.18459 0.897268 1.1654
1 6.04456 6.84881 4.98978
1 3.2147 10.895 10.777
1 3.21088 5.06765 7.24874
1 -0.080879 0.852573 9.61823
1 6.32729 7.00209 8.75369
1 9.40986 11.0067 2.50943
1 2.81015 5.17794 3.38282
1 2.51225 0.91783 3.47143
1 9.74734 6.87413 2.56751
1 6.93655 10.8752 8.61633
1 -0.356692 4.91927 9.44725
1 6.19331 2.86705 8.62993
1 -0.0187044 8.92252 9.36464
1 3.22585 9.09046 3.28718
1 9.52053 2.90247 2.70011
1 5.75064 2.88101 4.89427
1 6.48791 8.68793 1.06288
1 3.32786 9.19095 7.0385
1 2.93739 3.201 11.0858
1 0.121768 2.61662 5.81339
1 12.0501 8.76354 0.0557249
1 9.06832 8.96214 6.23707
1 -2.94389 3.1242 11.8047
1 -0.198454 2.69424 1.50921
1 12.4987 8.72851 4.5719
1 9.48978 9.0456 10.5241
1 -3.20895 3.15972 7.56684
2 11.5473 2.9108 3.75656
2 0.92489 8.934 2.67832
2 -2.19536 9.06499 8.53886
2 8.2951 2.97409 9.50112
2 5.38813 0.669362 8.32185
2 0.733229 6.88902 9.90353
2 4.03459 11.3444 3.98765
2 8.30717 4.96019 2.35755
2 8.30481 1.12353 1.88164
2 4.00592 7.18255 4.17701
2 0.93969 10.8033 10.134
2 5.38431 4.90087 7.86959
2 5.12813 2.96821 0.695476
2 6.84925 8.85933 5.42756
2 4.04354 8.84752 11.3634
2 2.00871 2.88991 6.98759
2 -3.57642 1.0002 11.5247
2 9.89623 6.98223 6.8027
2 13.0558 10.8302 0.478078
2 -0.671 4.76105 5.44702
2 -1.01123 0.614637 5.36652
2 13.1311 6.9322 0.814313
2 10.0883 10.8962 6.80579
2 -3.97913 5.07836 11.5145
2 8.03451 1.39035 11.9121
2 -1.9849 7.25687 6.37207
2 0.846116 10.2303 0.278161
2 11.0767 4.54196 5.74861
2 11.3065 1.86453 5.87041
2 0.964806 7.86963 0.112123
2 -1.83928 10.0425 6.07341
2 8.22725 3.91377 11.8298
2 9.43718 3.10914 5.05048
2 2.7934 8.9279 1.09052
2 -0.0732581 8.67991 7.07274
2 6.2484 2.89528 10.9717
2 1.05207 1.89917 11.4797
2 5.18713 7.92821 6.97572
2 8.41872 9.94334 0.627336
2 3.86424 4.28302 5.25522
2 3.74797 1.80525 5.22632
2 8.60203 7.53385 0.742247
2 5.5401 10.4591 6.8497
2 0.795527 4.37567 11.2497
2 -1.04366 2.72707 10.4261
2 7.39324 8.67459 7.81683
2 10.3594 9.06183 1.85132
2 1.91953 3.18084 4.45129
2 8.64568 0.575212 8.20005
2 -2.20627 6.12389 9.82285
2 0.600716 11.5604 3.78218
2 11.6404 5.48825 2.23667
2 10.7199 1.02821 1.7921
2 1.10501 6.67362 3.87047
2 -1.8284 11.2959 10.0037
2 7.82333 5.25598 8.25043
2 -4.32245 2.24433 9.27427
2 10.4905 8.54709 8.64862
2 13.4134 9.37325 2.72922
2 -1.30941 3.52451 3.23016
2 5.86584 1.02085 3.54232
2 6.56152 7.00815 2.70057
2 3.56476 10.8436 8.54496
2 2.94914 4.74187 9.45808
2 0.987608 0.398462 7.65609
2 5.39555 6.54642 10.8878
2 8.43556 11.3749 4.53043
2 3.87618 5.70073 1.5307
2 4.03396 0.777541 1.73962
2 8.23522 6.6547 4.43159
2 5.50569 11.0937 10.392
2 1.03195 5.22406 7.78205
2 3.76077 2.37302 9.08947
2 2.47766 8.59145 9.15163
2 5.94818 9.48275 3.00344
2 6.22861 3.34543 2.7664
2 -1.29101 1.09773 2.62944
2 -1.47235 7.08369 3.46085
2 -4.62248 10.9165 9.60367
2 -4.30061 4.68855 8.74237
2 3.61809 1.13091 11.311
2 2.39501 7.16304 6.89638
2 5.38663 10.6349 0.352492
2 6.85391 4.69712 5.60857
2 7.28244 2.34485 6.65382
2 -1.21411 8.44506 11.2375
2 1.92915 9.68625 4.92657
2 10.4017 3.48973 0.782213
2 2.38286 2.68304 1.87926
2 10.212 8.26776 4.28617
2 7.10551 9.20871 10.2569
2 -0.871563 3.57562 7.60828
2 -2.03139 1.38866 8.32999
2 8.60371 7.15583 9.6846
2 11.3572 10.5072 3.79327
2 0.824078 4.64513 2.02883
