Generated by runner2lammps.sh, original comment line:  this was structure 1400 in the original file

   16 atoms
  3 atom types

  0.0000000000000000E+00   4.0000018356099050E+00 xlo xhi
  0.0000000000000000E+00   4.0000018356099050E+00 ylo yhi
  0.0000000000000000E+00   2.4000009426127804E+01 zlo zhi

Atoms

    1   2   1.3662005383682982E-01   1.6908506658928513E-01   1.0987136331356142E+01
    2   2   3.7642134839190740E+00   2.6682310534219883E-01   3.1272012327224590E+00
    3   2   3.8348485117589135E+00   5.7151622515785161E-01   8.4297273231845384E+00
    4   2   7.6012929972643151E-01   3.5271333905532822E+00   4.7133458581125929E+00
    5   2   4.8825319234639147E-01   2.4852779799585170E+00   8.0405691699285651E+00
    6   2   3.7132994639825232E+00   1.5843496245478828E+00   5.5167021924776176E-02
    7   2   2.2701978951010484E+00   2.4861429799030215E+00   2.2985769062546586E+00
    8   2   9.9726039519158927E-02   9.0451035752327380E-02   1.2761145031247896E+00
    9   2   3.1015292228169185E+00   2.6073140279324631E+00   5.5683941949876647E+00
   10   2   6.3759625116404117E-01   3.9933945744923904E+00   6.7369526557462294E+00
   11   3   1.3031265135500074E+00   1.4711125801498479E+00   5.0897130065872629E+00
   12   3   2.5605710092130680E+00   3.1935682590460948E+00   9.0640395730892003E+00
   13   3   2.6429810401148751E-01   2.0795208198646993E+00   1.0497743138370181E+01
   14   1   2.0061647908645588E+00   1.3569265347463910E+00   1.1041950352923658E+01
   15   1   1.5664056175240941E+00   2.4192729537089268E+00   1.3256605211296690E-01
   16   1   2.0163327949295340E+00   9.1134835948330040E-01   8.9427065253949998E+00
